 DBCSR| CPU Multiplication driver                                           XSMM
 DBCSR| Multrec recursion limit                                              512
 DBCSR| Multiplication stack size                                           1000
 DBCSR| Maximum elements for images                                    UNLIMITED
 DBCSR| Multiplicative factor virtual images                                   1
 DBCSR| Use multiplication densification                                       T
 DBCSR| Multiplication size stacks                                             3
 DBCSR| Number of 3D layers                                               SINGLE
 DBCSR| Use MPI memory allocation                                              T
 DBCSR| Use RMA algorithm                                                      F
 DBCSR| Use Communication thread                                               T
 DBCSR| Communication thread load                                             87


  **** **** ******  **  PROGRAM STARTED AT               2020-09-10 19:52:24.857
 ***** ** ***  *** **   PROGRAM STARTED ON                     openhpc-compute-0
 **    ****   ******    PROGRAM STARTED BY                                steveb
 ***** **    ** ** **   PROGRAM PROCESS ID                                 19244
  **** **  *******  **  PROGRAM STARTED IN /alaska/steveb/hpc-tests/stage/alaska
                                           /ib-gcc9-openmpi4-ucx/cp2k/Cp2k_H2O_2
                                           56_1

 CP2K| version string:                                          CP2K version 7.1
 CP2K| source code revision number:                                  git:e635599
 CP2K| cp2kflags: libint fftw3 libxc parallel mpi3 scalapack xsmm               
 CP2K| is freely available from                            https://www.cp2k.org/
 CP2K| Program compiled at                          Wed Aug 12 17:59:38 BST 2020
 CP2K| Program compiled on                                       openhpc-login-0
 CP2K| Program compiled for                          linux-centos7-broadwell-gcc
 CP2K| Data directory path    /alaska/steveb/spack/opt/spack/linux-centos7-broad
 CP2K| Input file name                                               H2O-256.inp

 GLOBAL| Force Environment number                                              1
 GLOBAL| Basis set file name                                    ./GTH_BASIS_SETS
 GLOBAL| Potential file name                                         ./POTENTIAL
 GLOBAL| MM Potential file name                                     MM_POTENTIAL
 GLOBAL| Coordinate file name                                      __STD_INPUT__
 GLOBAL| Method name                                                        CP2K
 GLOBAL| Project name                                                    H2O-256
 GLOBAL| Preferred FFT library                                             FFTW3
 GLOBAL| Preferred diagonalization lib.                                       SL
 GLOBAL| Run type                                                             MD
 GLOBAL| All-to-all communication in single precision                          F
 GLOBAL| FFTs using library dependent lengths                                  F
 GLOBAL| Global print level                                                  LOW
 GLOBAL| MPI I/O enabled                                                       T
 GLOBAL| Total number of message passing processes                            32
 GLOBAL| Number of threads for this process                                    1
 GLOBAL| This output is from process                                           0
 GLOBAL| CPU model name                Intel(R) Xeon(R) CPU E5-2683 v4 @ 2.10GHz
 GLOBAL| CPUID                                                              1002

 MEMORY| system memory details [Kb]
 MEMORY|                        rank 0           min           max       average
 MEMORY| MemTotal            131760044     131760044     131760044     131760044
 MEMORY| MemFree             118957856     118957856     118957856     118957856
 MEMORY| Buffers                 32596         32596         32596         32596
 MEMORY| Cached                3285308       3285308       3285308       3285308
 MEMORY| Slab                  1438136       1438136       1438136       1438136
 MEMORY| SReclaimable           243580        243580        243580        243580
 MEMORY| MemLikelyFree       122519340     122519340     122519340     122519340


 GENERATE|  Preliminary Number of Bonds generated:                             0
 GENERATE|  Achieved consistency in connectivity generation.

 *******************************************************************************
 *******************************************************************************
 **                                                                           **
 **     #####                         ##              ##                      **
 **    ##   ##            ##          ##              ##                      **
 **   ##     ##                       ##            ######                    **
 **   ##     ##  ##   ##  ##   #####  ##  ##   ####   ##    #####    #####    **
 **   ##     ##  ##   ##  ##  ##      ## ##   ##      ##   ##   ##  ##   ##   **
 **   ##  ## ##  ##   ##  ##  ##      ####     ###    ##   ######   ######    **
 **    ##  ###   ##   ##  ##  ##      ## ##      ##   ##   ##       ##        **
 **     #######   #####   ##   #####  ##  ##  ####    ##    #####   ##        **
 **           ##                                                    ##        **
 **                                                                           **
 **                                                ... make the atoms dance   **
 **                                                                           **
 **            Copyright (C) by CP2K developers group (2000 - 2019)           **
 **                                                                           **
 *******************************************************************************


 TOTAL NUMBERS AND MAXIMUM NUMBERS

  Total number of            - Atomic kinds:                                   2
                             - Atoms:                                        768
                             - Shell sets:                                  1536
                             - Shells:                                      4608
                             - Primitive Cartesian functions:               5376
                             - Cartesian basis functions:                  10752
                             - Spherical basis functions:                  10240

  Maximum angular momentum of- Orbital basis functions:                        2
                             - Local part of the GTH pseudopotential:          2
                             - Non-local part of the GTH pseudopotential:      0


 SCF PARAMETERS         Density guess:                                    ATOMIC
                        --------------------------------------------------------
                        max_scf:                                              50
                        max_scf_history:                                       0
                        max_diis:                                              4
                        --------------------------------------------------------
                        eps_scf:                                        1.00E-05
                        eps_scf_history:                                0.00E+00
                        eps_diis:                                       1.00E-01
                        eps_eigval:                                     1.00E-05
                        --------------------------------------------------------
                        level_shift [a.u.]:                                 0.00
                        --------------------------------------------------------
                        No outer SCF

 MD| Molecular Dynamics Protocol 
 MD| Ensemble Type                                                           NVE
 MD| Number of Time Steps                                                     10
 MD| Time Step [fs]                                                         0.50
 MD| Temperature [K]                                                      300.00
 MD| Temperature tolerance [K]                                              0.00
 MD| Print MD information every                                        1 step(s)
 MD| File type     Print frequency[steps]                             File names
 MD| Coordinates            1                                  H2O-256-pos-1.xyz
 MD| Velocities             1                                  H2O-256-vel-1.xyz
 MD| Energies               1                                     H2O-256-1.ener
 MD| Dump                  20                                  H2O-256-1.restart

 ROT| Rotational Analysis Info 
 ROT| Principal axes and moments of inertia in atomic units:
 ROT|                                1                 2                 3
 ROT| EIGENVALUES            0.190183434E+10   0.192232499E+10   0.197526716E+10
 ROT|      X                     0.083303953      -0.910013404       0.406123202
 ROT|      Y                     0.938537254       0.208637347       0.274987783
 ROT|      Z                    -0.334975036       0.358254186       0.871461797
 ROT| Number of Rotovibrational vectors:     6

 Calculation of degrees of freedom
                                                      Number of atoms:       768
                                 Number of Intramolecular constraints:         0
                                 Number of Intermolecular constraints:         0
                                  Invariants(translation + rotations):         3
                                                   Degrees of freedom:      2301


 Restraints Information
                                  Number of Intramolecular restraints:         0
                                  Number of Intermolecular restraints:         0
 ************************** Velocities initialization **************************
 Initial Temperature                                                    300.00 K
 COM velocity:           -0.000000000000      0.000000000000      0.000000000000
 *******************************************************************************


 Number of electrons:                                                       2048
 Number of occupied orbitals:                                               1024
 Number of molecular orbitals:                                              1024

 Number of orbital functions:                                              10240
 Number of independent orbital functions:                                  10240

 Extrapolation method: initial_guess


 SCF WAVEFUNCTION OPTIMIZATION

  ----------------------------------- OT ---------------------------------------
  Minimizer      : DIIS                : direct inversion
                                         in the iterative subspace
                                         using   7 DIIS vectors
                                         safer DIIS on
  Preconditioner : FULL_KINETIC        : inversion of T + eS
  Precond_solver : DEFAULT
  stepsize       :    0.15000000                  energy_gap     :    0.20000000
  eps_taylor     :   0.10000E-15                  max_taylor     :             4
  ----------------------------------- OT ---------------------------------------

  Step     Update method      Time    Convergence         Total energy    Change
  ------------------------------------------------------------------------------
     1 OT DIIS     0.15E+00    9.6     0.00659818     -4240.4628944206 -4.24E+03
     2 OT DIIS     0.15E+00    4.3     0.00436857     -4294.0959844577 -5.36E+01
     3 OT DIIS     0.15E+00    4.5     0.00339230     -4328.2406241150 -3.41E+01
     4 OT DIIS     0.15E+00    4.4     0.00261110     -4346.1476826975 -1.79E+01
     5 OT DIIS     0.15E+00    4.3     0.00187372     -4363.4180981678 -1.73E+01
     6 OT DIIS     0.15E+00    4.3     0.00146529     -4374.8645554171 -1.14E+01
     7 OT DIIS     0.15E+00    4.7     0.00113319     -4383.9307180875 -9.07E+00
     8 OT DIIS     0.15E+00    4.5     0.00087803     -4390.2031646566 -6.27E+00
     9 OT DIIS     0.15E+00    4.6     0.00068891     -4394.3786502431 -4.18E+00
    10 OT DIIS     0.15E+00    4.3     0.00054026     -4397.2255497742 -2.85E+00
    11 OT DIIS     0.15E+00    4.5     0.00043682     -4399.1371369123 -1.91E+00
    12 OT DIIS     0.15E+00    4.7     0.00035756     -4400.3373280898 -1.20E+00
    13 OT DIIS     0.15E+00    4.4     0.00032467     -4401.0508517510 -7.14E-01
    14 OT DIIS     0.15E+00    4.5     0.00026896     -4401.6943643219 -6.44E-01
    15 OT DIIS     0.15E+00    4.2     0.00022933     -4402.2214678920 -5.27E-01
    16 OT DIIS     0.15E+00    4.5     0.00019872     -4402.6226029828 -4.01E-01
    17 OT DIIS     0.15E+00    4.4     0.00017335     -4402.9368257214 -3.14E-01
    18 OT DIIS     0.15E+00    4.3     0.00014372     -4403.2251002618 -2.88E-01
    19 OT DIIS     0.15E+00    4.4     0.00012689     -4403.3711193761 -1.46E-01
    20 OT DIIS     0.15E+00    4.4     0.00009929     -4403.5496584922 -1.79E-01
    21 OT DIIS     0.15E+00    4.4     0.00008567     -4403.6173214938 -6.77E-02
    22 OT DIIS     0.15E+00    4.4     0.00007198     -4403.6862605757 -6.89E-02
    23 OT DIIS     0.15E+00    4.5     0.00006477     -4403.7275509932 -4.13E-02
    24 OT DIIS     0.15E+00    4.6     0.00005740     -4403.7588114623 -3.13E-02
    25 OT DIIS     0.15E+00    4.5     0.00005341     -4403.7801923730 -2.14E-02
    26 OT DIIS     0.15E+00    4.6     0.00004886     -4403.8049251318 -2.47E-02
    27 OT DIIS     0.15E+00    4.3     0.00004667     -4403.8235452906 -1.86E-02
    28 OT DIIS     0.15E+00    4.5     0.00004610     -4403.8342045275 -1.07E-02
    29 OT SD       0.15E+00    4.7     0.00004634     -4403.8394796804 -5.28E-03
    30 OT SD       0.15E+00    4.4     0.00004662     -4403.8428667474 -3.39E-03
    31 OT SD       0.15E+00    4.2     0.00004694     -4403.8462961355 -3.43E-03
    32 OT SD       0.15E+00    4.4     0.00004731     -4403.8497754052 -3.48E-03
    33 OT SD       0.15E+00    4.4     0.00004772     -4403.8533108817 -3.54E-03
    34 OT SD       0.15E+00    4.4     0.00004815     -4403.8569081828 -3.60E-03
    35 OT SD       0.15E+00    4.4     0.00004862     -4403.8605724182 -3.66E-03
    36 OT SD       0.15E+00    4.5     0.00004910     -4403.8643082727 -3.74E-03
    37 OT SD       0.15E+00    4.4     0.00004961     -4403.8681200402 -3.81E-03
    38 OT SD       0.15E+00    4.5     0.00005014     -4403.8720116351 -3.89E-03
    39 OT DIIS     0.15E+00    4.2     0.00005068     -4403.8759865917 -3.97E-03
    40 OT SD       0.15E+00    4.4     0.00010936     -4403.8736000035  2.39E-03
    41 OT SD       0.15E+00    4.7     0.00008588     -4403.8899856387 -1.64E-02
    42 OT SD       0.15E+00    4.7     0.00007630     -4403.9008404130 -1.09E-02
    43 OT SD       0.15E+00    4.8     0.00007165     -4403.9096723487 -8.83E-03
    44 OT SD       0.15E+00    4.9     0.00006930     -4403.9175915834 -7.92E-03
    45 OT SD       0.15E+00    4.5     0.00006808     -4403.9250666056 -7.48E-03
    46 OT DIIS     0.15E+00    4.5     0.00006744     -4403.9323160311 -7.25E-03
    47 OT SD       0.15E+00    4.6     0.00006974     -4403.9922405808 -5.99E-02
    48 OT SD       0.15E+00    4.5     0.00006852     -4403.9998133315 -7.57E-03
    49 OT DIIS     0.15E+00    4.5     0.00006774     -4404.0071512260 -7.34E-03
    50 OT SD       0.15E+00    4.5     0.00012196     -4404.0065243488  6.27E-04

  Leaving inner SCF loop after reaching    50 steps.


  Electronic density on regular grids:      -2048.0000002974       -0.0000002974
  Core density on regular grids:             2047.9999999924       -0.0000000076
  Total charge density on r-space grids:       -0.0000003051
  Total charge density g-space grids:          -0.0000003051

  Overlap energy of the core charge distribution:               0.00002250401242
  Self energy of the core charge distribution:             -11221.21997975419799
  Core Hamiltonian energy:                                   3302.70165296347113
  Hartree energy:                                            4580.10306162516099
  Exchange-correlation energy:                              -1065.59128168729148

  Total energy:                                             -4404.00652434884432

 *** WARNING in qs_scf.F:542 :: SCF run NOT converged ***


 ENERGY| Total FORCE_EVAL ( QS ) energy (a.u.):            -4404.027438647686722


 MD_ENERGIES| Initialization proceeding


 ******************************** GO CP2K GO! **********************************
 INITIAL POTENTIAL ENERGY[hartree]     =                     -0.440402743865E+04
 INITIAL KINETIC ENERGY[hartree]       =                      0.109302631574E+01
 INITIAL TEMPERATURE[K]                =                                 300.000
 INITIAL VOLUME[bohr^3]                =                      0.518611303645E+05
 INITIAL CELL LNTHS[bohr]   =      0.3729186E+02   0.3729186E+02   0.3729186E+02
 INITIAL CELL ANGLS[deg]    =      0.9000000E+02   0.9000000E+02   0.9000000E+02
 ******************************** GO CP2K GO! **********************************

 Number of electrons:                                                       2048
 Number of occupied orbitals:                                               1024
 Number of molecular orbitals:                                              1024

 Number of orbital functions:                                              10240
 Number of independent orbital functions:                                  10240

 Extrapolation method: PS Nth order


 SCF WAVEFUNCTION OPTIMIZATION

  ----------------------------------- OT ---------------------------------------
  Minimizer      : DIIS                : direct inversion
                                         in the iterative subspace
                                         using   7 DIIS vectors
                                         safer DIIS on
  Preconditioner : FULL_KINETIC        : inversion of T + eS
  Precond_solver : DEFAULT
  stepsize       :    0.15000000                  energy_gap     :    0.20000000
  eps_taylor     :   0.10000E-15                  max_taylor     :             4
  ----------------------------------- OT ---------------------------------------

  Step     Update method      Time    Convergence         Total energy    Change
  ------------------------------------------------------------------------------
     1 OT DIIS     0.15E+00    9.5     0.00018282     -4404.0411763044 -4.40E+03
     2 OT DIIS     0.15E+00    4.6     0.00014368     -4404.0871311174 -4.60E-02
     3 OT DIIS     0.15E+00    4.7     0.00011130     -4404.1438488325 -5.67E-02
     4 OT DIIS     0.15E+00    4.4     0.00009393     -4404.1894325582 -4.56E-02
     5 OT DIIS     0.15E+00    4.6     0.00007237     -4404.2440645256 -5.46E-02
     6 OT DIIS     0.15E+00    4.4     0.00005163     -4404.2833625509 -3.93E-02
     7 OT DIIS     0.15E+00    4.7     0.00003271     -4404.3051295123 -2.18E-02
     8 OT DIIS     0.15E+00    4.8     0.00002061     -4404.3133027953 -8.17E-03
     9 OT DIIS     0.15E+00    4.5     0.00001433     -4404.3156225224 -2.32E-03
    10 OT DIIS     0.15E+00    4.7     0.00001003     -4404.3167242744 -1.10E-03
    11 OT DIIS     0.15E+00    4.7     0.00000695     -4404.3172647841 -5.41E-04

  *** SCF run converged in    11 steps ***


  Electronic density on regular grids:      -2047.9999993858        0.0000006142
  Core density on regular grids:             2047.9999999911       -0.0000000089
  Total charge density on r-space grids:        0.0000006053
  Total charge density g-space grids:           0.0000006053

  Overlap energy of the core charge distribution:               0.00002178952439
  Self energy of the core charge distribution:             -11221.21997975419799
  Core Hamiltonian energy:                                   3301.42577716379310
  Hartree energy:                                            4580.84618507388950
  Exchange-correlation energy:                              -1065.36926905713108

  Total energy:                                             -4404.31726478412202

 ENERGY| Total FORCE_EVAL ( QS ) energy (a.u.):            -4404.317523122294006


 *******************************************************************************
 ENSEMBLE TYPE                =                                              NVE
 STEP NUMBER                  =                                                1
 TIME [fs]                    =                                         0.500000
 CONSERVED QUANTITY [hartree] =                              -0.440319136725E+04

                                              INSTANTANEOUS             AVERAGES
 CPU TIME [s]                 =                      299.14               299.14
 ENERGY DRIFT PER ATOM [K]    =         -0.105650845257E+03   0.000000000000E+00
 POTENTIAL ENERGY[hartree]    =         -0.440431752312E+04  -0.440431752312E+04
 KINETIC ENERGY [hartree]     =          0.112615587108E+01   0.112615587108E+01
 TEMPERATURE [K]              =                     309.093              309.093
 *******************************************************************************


 Number of electrons:                                                       2048
 Number of occupied orbitals:                                               1024
 Number of molecular orbitals:                                              1024

 Number of orbital functions:                                              10240
 Number of independent orbital functions:                                  10240

 Extrapolation method: PS Nth order


 SCF WAVEFUNCTION OPTIMIZATION

  ----------------------------------- OT ---------------------------------------
  Minimizer      : DIIS                : direct inversion
                                         in the iterative subspace
                                         using   7 DIIS vectors
                                         safer DIIS on
  Preconditioner : FULL_KINETIC        : inversion of T + eS
  Precond_solver : DEFAULT
  stepsize       :    0.15000000                  energy_gap     :    0.20000000
  eps_taylor     :   0.10000E-15                  max_taylor     :             4
  ----------------------------------- OT ---------------------------------------

  Step     Update method      Time    Convergence         Total energy    Change
  ------------------------------------------------------------------------------
     1 OT DIIS     0.15E+00    9.3     0.00014870     -4404.3136559312 -4.40E+03
     2 OT DIIS     0.15E+00    4.4     0.00010033     -4404.3419132966 -2.83E-02
     3 OT DIIS     0.15E+00    4.5     0.00006547     -4404.3647224432 -2.28E-02
     4 OT DIIS     0.15E+00    4.7     0.00004566     -4404.3786659747 -1.39E-02
     5 OT DIIS     0.15E+00    4.4     0.00002944     -4404.3880651788 -9.40E-03
     6 OT DIIS     0.15E+00    4.5     0.00001764     -4404.3927352010 -4.67E-03
     7 OT DIIS     0.15E+00    4.4     0.00001077     -4404.3942640314 -1.53E-03
     8 OT DIIS     0.15E+00    4.6     0.00000630     -4404.3948284392 -5.64E-04

  *** SCF run converged in     8 steps ***


  Electronic density on regular grids:      -2047.9999985392        0.0000014608
  Core density on regular grids:             2047.9999999933       -0.0000000067
  Total charge density on r-space grids:        0.0000014542
  Total charge density g-space grids:           0.0000014542

  Overlap energy of the core charge distribution:               0.00001966263470
  Self energy of the core charge distribution:             -11221.21997975419799
  Core Hamiltonian energy:                                   3297.09695906831166
  Hartree energy:                                            4583.93314003434261
  Exchange-correlation energy:                              -1064.20496745031983

  Total energy:                                             -4404.39482843922815

 ENERGY| Total FORCE_EVAL ( QS ) energy (a.u.):            -4404.394994576588033


 *******************************************************************************
 ENSEMBLE TYPE                =                                              NVE
 STEP NUMBER                  =                                                2
 TIME [fs]                    =                                         1.000000
 CONSERVED QUANTITY [hartree] =                              -0.440319281741E+04

                                              INSTANTANEOUS             AVERAGES
 CPU TIME [s]                 =                       47.97               173.56
 ENERGY DRIFT PER ATOM [K]    =         -0.106247097623E+03  -0.531235488114E+02
 POTENTIAL ENERGY[hartree]    =         -0.440439499458E+04  -0.440435625885E+04
 KINETIC ENERGY [hartree]     =          0.120217717154E+01   0.116416652131E+01
 TEMPERATURE [K]              =                     329.958              319.526
 *******************************************************************************


 Number of electrons:                                                       2048
 Number of occupied orbitals:                                               1024
 Number of molecular orbitals:                                              1024

 Number of orbital functions:                                              10240
 Number of independent orbital functions:                                  10240

 Extrapolation method: PS Nth order


 SCF WAVEFUNCTION OPTIMIZATION

  ----------------------------------- OT ---------------------------------------
  Minimizer      : DIIS                : direct inversion
                                         in the iterative subspace
                                         using   7 DIIS vectors
                                         safer DIIS on
  Preconditioner : FULL_KINETIC        : inversion of T + eS
  Precond_solver : DEFAULT
  stepsize       :    0.15000000                  energy_gap     :    0.20000000
  eps_taylor     :   0.10000E-15                  max_taylor     :             4
  ----------------------------------- OT ---------------------------------------

  Step     Update method      Time    Convergence         Total energy    Change
  ------------------------------------------------------------------------------
     1 OT DIIS     0.15E+00    9.4     0.00015815     -4404.2489282669 -4.40E+03
     2 OT DIIS     0.15E+00    4.5     0.00013378     -4404.2847666788 -3.58E-02
     3 OT DIIS     0.15E+00    4.6     0.00010608     -4404.3431649516 -5.84E-02
     4 OT DIIS     0.15E+00    4.5     0.00008667     -4404.3928518665 -4.97E-02
     5 OT DIIS     0.15E+00    4.5     0.00006169     -4404.4456731609 -5.28E-02
     6 OT DIIS     0.15E+00    4.5     0.00003939     -4404.4751144915 -2.94E-02
     7 OT DIIS     0.15E+00    4.5     0.00002568     -4404.4864072707 -1.13E-02
     8 OT DIIS     0.15E+00    4.4     0.00001683     -4404.4905216912 -4.11E-03
     9 OT DIIS     0.15E+00    4.5     0.00001205     -4404.4919830175 -1.46E-03
    10 OT DIIS     0.15E+00    4.6     0.00000820     -4404.4928132593 -8.30E-04

  *** SCF run converged in    10 steps ***


  Electronic density on regular grids:      -2047.9999978023        0.0000021977
  Core density on regular grids:             2047.9999999956       -0.0000000044
  Total charge density on r-space grids:        0.0000021933
  Total charge density g-space grids:           0.0000021933

  Overlap energy of the core charge distribution:               0.00001607600157
  Self energy of the core charge distribution:             -11221.21997975419799
  Core Hamiltonian energy:                                   3290.55881711799429
  Hartree energy:                                            4588.60673558159760
  Exchange-correlation energy:                              -1062.43840228065801

  Total energy:                                             -4404.49281325926313

 ENERGY| Total FORCE_EVAL ( QS ) energy (a.u.):            -4404.493197092703667


 *******************************************************************************
 ENSEMBLE TYPE                =                                              NVE
 STEP NUMBER                  =                                                3
 TIME [fs]                    =                                         1.500000
 CONSERVED QUANTITY [hartree] =                              -0.440319461465E+04

                                              INSTANTANEOUS             AVERAGES
 CPU TIME [s]                 =                       57.94               135.02
 ENERGY DRIFT PER ATOM [K]    =         -0.106986062287E+03  -0.710777199699E+02
 POTENTIAL ENERGY[hartree]    =         -0.440449319709E+04  -0.440440190493E+04
 KINETIC ENERGY [hartree]     =          0.129858244121E+01   0.120897182794E+01
 TEMPERATURE [K]              =                     356.418              331.823
 *******************************************************************************


 Number of electrons:                                                       2048
 Number of occupied orbitals:                                               1024
 Number of molecular orbitals:                                              1024

 Number of orbital functions:                                              10240
 Number of independent orbital functions:                                  10240

 Extrapolation method: PS Nth order


 SCF WAVEFUNCTION OPTIMIZATION

  ----------------------------------- OT ---------------------------------------
  Minimizer      : DIIS                : direct inversion
                                         in the iterative subspace
                                         using   7 DIIS vectors
                                         safer DIIS on
  Preconditioner : FULL_KINETIC        : inversion of T + eS
  Precond_solver : DEFAULT
  stepsize       :    0.15000000                  energy_gap     :    0.20000000
  eps_taylor     :   0.10000E-15                  max_taylor     :             4
  ----------------------------------- OT ---------------------------------------

  Step     Update method      Time    Convergence         Total energy    Change
  ------------------------------------------------------------------------------
     1 OT DIIS     0.15E+00    9.2     0.00015288     -4404.4902683747 -4.40E+03
     2 OT DIIS     0.15E+00    4.4     0.00010496     -4404.5204102140 -3.01E-02
     3 OT DIIS     0.15E+00    4.2     0.00006881     -4404.5460666189 -2.57E-02
     4 OT DIIS     0.15E+00    4.5     0.00004743     -4404.5618574283 -1.58E-02
     5 OT DIIS     0.15E+00    4.6     0.00002778     -4404.5726741103 -1.08E-02
     6 OT DIIS     0.15E+00    4.5     0.00001626     -4404.5765790759 -3.90E-03
     7 OT DIIS     0.15E+00    4.5     0.00000971     -4404.5777723408 -1.19E-03

  *** SCF run converged in     7 steps ***


  Electronic density on regular grids:      -2047.9999971830        0.0000028170
  Core density on regular grids:             2047.9999999947       -0.0000000053
  Total charge density on r-space grids:        0.0000028117
  Total charge density g-space grids:           0.0000028117

  Overlap energy of the core charge distribution:               0.00001168937104
  Self energy of the core charge distribution:             -11221.21997975419799
  Core Hamiltonian energy:                                   3282.59625501579558
  Hartree energy:                                            4594.32225332348025
  Exchange-correlation energy:                              -1060.27631261529359

  Total energy:                                             -4404.57777234084460

 ENERGY| Total FORCE_EVAL ( QS ) energy (a.u.):            -4404.578193334010393


 *******************************************************************************
 ENSEMBLE TYPE                =                                              NVE
 STEP NUMBER                  =                                                4
 TIME [fs]                    =                                         2.000000
 CONSERVED QUANTITY [hartree] =                              -0.440319678347E+04

                                              INSTANTANEOUS             AVERAGES
 CPU TIME [s]                 =                       44.41               112.37
 ENERGY DRIFT PER ATOM [K]    =         -0.107877804153E+03  -0.802777410157E+02
 POTENTIAL ENERGY[hartree]    =         -0.440457819333E+04  -0.440444597703E+04
 KINETIC ENERGY [hartree]     =          0.138140986448E+01   0.125208133708E+01
 TEMPERATURE [K]              =                     379.152              343.655
 *******************************************************************************


 Number of electrons:                                                       2048
 Number of occupied orbitals:                                               1024
 Number of molecular orbitals:                                              1024

 Number of orbital functions:                                              10240
 Number of independent orbital functions:                                  10240

 Extrapolation method: PS Nth order


 SCF WAVEFUNCTION OPTIMIZATION

  ----------------------------------- OT ---------------------------------------
  Minimizer      : DIIS                : direct inversion
                                         in the iterative subspace
                                         using   7 DIIS vectors
                                         safer DIIS on
  Preconditioner : FULL_KINETIC        : inversion of T + eS
  Precond_solver : DEFAULT
  stepsize       :    0.15000000                  energy_gap     :    0.20000000
  eps_taylor     :   0.10000E-15                  max_taylor     :             4
  ----------------------------------- OT ---------------------------------------

  Step     Update method      Time    Convergence         Total energy    Change
  ------------------------------------------------------------------------------
     1 OT DIIS     0.15E+00    9.5     0.00006120     -4404.5904045622 -4.40E+03
     2 OT DIIS     0.15E+00    4.2     0.00005024     -4404.5957041964 -5.30E-03
     3 OT DIIS     0.15E+00    4.3     0.00003455     -4404.6043006296 -8.60E-03
     4 OT DIIS     0.15E+00    4.5     0.00002371     -4404.6097165401 -5.42E-03
     5 OT DIIS     0.15E+00    4.5     0.00001518     -4404.6127597050 -3.04E-03
     6 OT DIIS     0.15E+00    4.4     0.00000970     -4404.6139884772 -1.23E-03

  *** SCF run converged in     6 steps ***


  Electronic density on regular grids:      -2047.9999967013        0.0000032987
  Core density on regular grids:             2047.9999999933       -0.0000000067
  Total charge density on r-space grids:        0.0000032921
  Total charge density g-space grids:           0.0000032921

  Overlap energy of the core charge distribution:               0.00000766404667
  Self energy of the core charge distribution:             -11221.21997975419799
  Core Hamiltonian energy:                                   3274.02731409498801
  Hartree energy:                                            4600.52585764451942
  Exchange-correlation energy:                              -1057.94718812656538

  Total energy:                                             -4404.61398847720920

 ENERGY| Total FORCE_EVAL ( QS ) energy (a.u.):            -4404.614487644343171


 *******************************************************************************
 ENSEMBLE TYPE                =                                              NVE
 STEP NUMBER                  =                                                5
 TIME [fs]                    =                                         2.500000
 CONSERVED QUANTITY [hartree] =                              -0.440319771457E+04

                                              INSTANTANEOUS             AVERAGES
 CPU TIME [s]                 =                       40.04                97.90
 ENERGY DRIFT PER ATOM [K]    =         -0.108260639156E+03  -0.858743206437E+02
 POTENTIAL ENERGY[hartree]    =         -0.440461448764E+04  -0.440447967915E+04
 KINETIC ENERGY [hartree]     =          0.141677307637E+01   0.128501968494E+01
 TEMPERATURE [K]              =                     388.858              352.696
 *******************************************************************************


 Number of electrons:                                                       2048
 Number of occupied orbitals:                                               1024
 Number of molecular orbitals:                                              1024

 Number of orbital functions:                                              10240
 Number of independent orbital functions:                                  10240

 Extrapolation method: PS Nth order


 SCF WAVEFUNCTION OPTIMIZATION

  ----------------------------------- OT ---------------------------------------
  Minimizer      : DIIS                : direct inversion
                                         in the iterative subspace
                                         using   7 DIIS vectors
                                         safer DIIS on
  Preconditioner : FULL_KINETIC        : inversion of T + eS
  Precond_solver : DEFAULT
  stepsize       :    0.15000000                  energy_gap     :    0.20000000
  eps_taylor     :   0.10000E-15                  max_taylor     :             4
  ----------------------------------- OT ---------------------------------------

  Step     Update method      Time    Convergence         Total energy    Change
  ------------------------------------------------------------------------------
     1 OT DIIS     0.15E+00    9.3     0.00005065     -4404.5712209567 -4.40E+03
     2 OT DIIS     0.15E+00    4.2     0.00004141     -4404.5748624104 -3.64E-03
     3 OT DIIS     0.15E+00    4.3     0.00002227     -4404.5814183413 -6.56E-03
     4 OT DIIS     0.15E+00    4.3     0.00001331     -4404.5834414646 -2.02E-03
     5 OT DIIS     0.15E+00    4.4     0.00000803     -4404.5841734553 -7.32E-04

  *** SCF run converged in     5 steps ***


  Electronic density on regular grids:      -2047.9999963765        0.0000036235
  Core density on regular grids:             2047.9999999959       -0.0000000041
  Total charge density on r-space grids:        0.0000036194
  Total charge density g-space grids:           0.0000036194

  Overlap energy of the core charge distribution:               0.00000476330488
  Self energy of the core charge distribution:             -11221.21997975419799
  Core Hamiltonian energy:                                   3265.82529273378213
  Hartree energy:                                            4606.50844848103861
  Exchange-correlation energy:                              -1055.69793967921510

  Total energy:                                             -4404.58417345528687

 ENERGY| Total FORCE_EVAL ( QS ) energy (a.u.):            -4404.584432984172054


 *******************************************************************************
 ENSEMBLE TYPE                =                                              NVE
 STEP NUMBER                  =                                                6
 TIME [fs]                    =                                         3.000000
 CONSERVED QUANTITY [hartree] =                              -0.440319692735E+04

                                              INSTANTANEOUS             AVERAGES
 CPU TIME [s]                 =                       35.16                87.45
 ENERGY DRIFT PER ATOM [K]    =         -0.107936962988E+03  -0.895514277011E+02
 POTENTIAL ENERGY[hartree]    =         -0.440458443298E+04  -0.440449713813E+04
 KINETIC ENERGY [hartree]     =          0.138750563360E+01   0.130210067638E+01
 TEMPERATURE [K]              =                     380.825              357.384
 *******************************************************************************


 Number of electrons:                                                       2048
 Number of occupied orbitals:                                               1024
 Number of molecular orbitals:                                              1024

 Number of orbital functions:                                              10240
 Number of independent orbital functions:                                  10240

 Extrapolation method: PS Nth order


 SCF WAVEFUNCTION OPTIMIZATION

  ----------------------------------- OT ---------------------------------------
  Minimizer      : DIIS                : direct inversion
                                         in the iterative subspace
                                         using   7 DIIS vectors
                                         safer DIIS on
  Preconditioner : FULL_KINETIC        : inversion of T + eS
  Precond_solver : DEFAULT
  stepsize       :    0.15000000                  energy_gap     :    0.20000000
  eps_taylor     :   0.10000E-15                  max_taylor     :             4
  ----------------------------------- OT ---------------------------------------

  Step     Update method      Time    Convergence         Total energy    Change
  ------------------------------------------------------------------------------
     1 OT DIIS     0.15E+00    9.4     0.00004716     -4404.4843962889 -4.40E+03
     2 OT DIIS     0.15E+00    4.2     0.00003933     -4404.4875847589 -3.19E-03
     3 OT DIIS     0.15E+00    4.4     0.00002125     -4404.4940035642 -6.42E-03
     4 OT DIIS     0.15E+00    4.3     0.00001353     -4404.4959444031 -1.94E-03
     5 OT DIIS     0.15E+00    4.3     0.00000903     -4404.4967057417 -7.61E-04

  *** SCF run converged in     5 steps ***


  Electronic density on regular grids:      -2047.9999961952        0.0000038048
  Core density on regular grids:             2048.0000000013        0.0000000013
  Total charge density on r-space grids:        0.0000038062
  Total charge density g-space grids:           0.0000038062

  Overlap energy of the core charge distribution:               0.00000301341257
  Self energy of the core charge distribution:             -11221.21997975419799
  Core Hamiltonian energy:                                   3258.62586624505275
  Hartree energy:                                            4611.81411570922864
  Exchange-correlation energy:                              -1053.71671095518764

  Total energy:                                             -4404.49670574169158

 ENERGY| Total FORCE_EVAL ( QS ) energy (a.u.):            -4404.497075636274531


 *******************************************************************************
 ENSEMBLE TYPE                =                                              NVE
 STEP NUMBER                  =                                                7
 TIME [fs]                    =                                         3.500000
 CONSERVED QUANTITY [hartree] =                              -0.440319455558E+04

                                              INSTANTANEOUS             AVERAGES
 CPU TIME [s]                 =                       35.15                79.97
 ENERGY DRIFT PER ATOM [K]    =         -0.106961775822E+03  -0.920386202898E+02
 POTENTIAL ENERGY[hartree]    =         -0.440449707564E+04  -0.440449712920E+04
 KINETIC ENERGY [hartree]     =          0.130252005224E+01   0.130216058722E+01
 TEMPERATURE [K]              =                     357.499              357.401
 *******************************************************************************


 Number of electrons:                                                       2048
 Number of occupied orbitals:                                               1024
 Number of molecular orbitals:                                              1024

 Number of orbital functions:                                              10240
 Number of independent orbital functions:                                  10240

 Extrapolation method: PS Nth order


 SCF WAVEFUNCTION OPTIMIZATION

  ----------------------------------- OT ---------------------------------------
  Minimizer      : DIIS                : direct inversion
                                         in the iterative subspace
                                         using   7 DIIS vectors
                                         safer DIIS on
  Preconditioner : FULL_KINETIC        : inversion of T + eS
  Precond_solver : DEFAULT
  stepsize       :    0.15000000                  energy_gap     :    0.20000000
  eps_taylor     :   0.10000E-15                  max_taylor     :             4
  ----------------------------------- OT ---------------------------------------

  Step     Update method      Time    Convergence         Total energy    Change
  ------------------------------------------------------------------------------
     1 OT DIIS     0.15E+00    9.4     0.00004293     -4404.3743724235 -4.40E+03
     2 OT DIIS     0.15E+00    4.3     0.00003568     -4404.3770138438 -2.64E-03
     3 OT DIIS     0.15E+00    4.3     0.00001693     -4404.3824029453 -5.39E-03
     4 OT DIIS     0.15E+00    4.4     0.00001147     -4404.3834735154 -1.07E-03
     5 OT DIIS     0.15E+00    4.4     0.00000808     -4404.3840029626 -5.29E-04

  *** SCF run converged in     5 steps ***


  Electronic density on regular grids:      -2047.9999961250        0.0000038750
  Core density on regular grids:             2048.0000000051        0.0000000051
  Total charge density on r-space grids:        0.0000038800
  Total charge density g-space grids:           0.0000038800

  Overlap energy of the core charge distribution:               0.00000208242753
  Self energy of the core charge distribution:             -11221.21997975419799
  Core Hamiltonian energy:                                   3253.02649078582817
  Hartree energy:                                            4615.97147791146563
  Exchange-correlation energy:                              -1052.16199398809226

  Total energy:                                             -4404.38400296256805

 ENERGY| Total FORCE_EVAL ( QS ) energy (a.u.):            -4404.384353157982332


 *******************************************************************************
 ENSEMBLE TYPE                =                                              NVE
 STEP NUMBER                  =                                                8
 TIME [fs]                    =                                         4.000000
 CONSERVED QUANTITY [hartree] =                              -0.440319200775E+04

                                              INSTANTANEOUS             AVERAGES
 CPU TIME [s]                 =                       35.53                74.42
 ENERGY DRIFT PER ATOM [K]    =         -0.105914196575E+03  -0.937730673255E+02
 POTENTIAL ENERGY[hartree]    =         -0.440438435316E+04  -0.440448303219E+04
 KINETIC ENERGY [hartree]     =          0.119234540629E+01   0.128843368960E+01
 TEMPERATURE [K]              =                     327.260              353.633
 *******************************************************************************


 Number of electrons:                                                       2048
 Number of occupied orbitals:                                               1024
 Number of molecular orbitals:                                              1024

 Number of orbital functions:                                              10240
 Number of independent orbital functions:                                  10240

 Extrapolation method: PS Nth order


 SCF WAVEFUNCTION OPTIMIZATION

  ----------------------------------- OT ---------------------------------------
  Minimizer      : DIIS                : direct inversion
                                         in the iterative subspace
                                         using   7 DIIS vectors
                                         safer DIIS on
  Preconditioner : FULL_KINETIC        : inversion of T + eS
  Precond_solver : DEFAULT
  stepsize       :    0.15000000                  energy_gap     :    0.20000000
  eps_taylor     :   0.10000E-15                  max_taylor     :             4
  ----------------------------------- OT ---------------------------------------

  Step     Update method      Time    Convergence         Total energy    Change
  ------------------------------------------------------------------------------
     1 OT DIIS     0.15E+00    9.5     0.00004272     -4404.2746213887 -4.40E+03
     2 OT DIIS     0.15E+00    4.3     0.00003550     -4404.2772298755 -2.61E-03
     3 OT DIIS     0.15E+00    4.3     0.00002053     -4404.2820936609 -4.86E-03
     4 OT DIIS     0.15E+00    4.2     0.00001370     -4404.2838518342 -1.76E-03
     5 OT DIIS     0.15E+00    4.4     0.00000988     -4404.2846390495 -7.87E-04

  *** SCF run converged in     5 steps ***


  Electronic density on regular grids:      -2047.9999961335        0.0000038665
  Core density on regular grids:             2048.0000000029        0.0000000029
  Total charge density on r-space grids:        0.0000038693
  Total charge density g-space grids:           0.0000038693

  Overlap energy of the core charge distribution:               0.00000165738821
  Self energy of the core charge distribution:             -11221.21997975419799
  Core Hamiltonian energy:                                   3249.20738230980214
  Hartree energy:                                            4618.83522942620584
  Exchange-correlation energy:                              -1051.10727268871233

  Total energy:                                             -4404.28463904951423

 ENERGY| Total FORCE_EVAL ( QS ) energy (a.u.):            -4404.285182902935958


 *******************************************************************************
 ENSEMBLE TYPE                =                                              NVE
 STEP NUMBER                  =                                                9
 TIME [fs]                    =                                         4.500000
 CONSERVED QUANTITY [hartree] =                              -0.440318980604E+04

                                              INSTANTANEOUS             AVERAGES
 CPU TIME [s]                 =                       35.40                70.08
 ENERGY DRIFT PER ATOM [K]    =         -0.105008931544E+03  -0.950214966830E+02
 POTENTIAL ENERGY[hartree]    =         -0.440428518290E+04  -0.440446104894E+04
 KINETIC ENERGY [hartree]     =          0.109537685917E+01   0.126698293066E+01
 TEMPERATURE [K]              =                     300.645              347.745
 *******************************************************************************


 Number of electrons:                                                       2048
 Number of occupied orbitals:                                               1024
 Number of molecular orbitals:                                              1024

 Number of orbital functions:                                              10240
 Number of independent orbital functions:                                  10240

 Extrapolation method: PS Nth order


 SCF WAVEFUNCTION OPTIMIZATION

  ----------------------------------- OT ---------------------------------------
  Minimizer      : DIIS                : direct inversion
                                         in the iterative subspace
                                         using   7 DIIS vectors
                                         safer DIIS on
  Preconditioner : FULL_KINETIC        : inversion of T + eS
  Precond_solver : DEFAULT
  stepsize       :    0.15000000                  energy_gap     :    0.20000000
  eps_taylor     :   0.10000E-15                  max_taylor     :             4
  ----------------------------------- OT ---------------------------------------

  Step     Update method      Time    Convergence         Total energy    Change
  ------------------------------------------------------------------------------
     1 OT DIIS     0.15E+00    9.4     0.00004107     -4404.2221656040 -4.40E+03
     2 OT DIIS     0.15E+00    4.4     0.00003450     -4404.2245928921 -2.43E-03
     3 OT DIIS     0.15E+00    4.5     0.00001865     -4404.2296120114 -5.02E-03
     4 OT DIIS     0.15E+00    4.4     0.00001296     -4404.2310287229 -1.42E-03
     5 OT DIIS     0.15E+00    4.3     0.00000953     -4404.2317563896 -7.28E-04

  *** SCF run converged in     5 steps ***


  Electronic density on regular grids:      -2047.9999962032        0.0000037968
  Core density on regular grids:             2047.9999999969       -0.0000000031
  Total charge density on r-space grids:        0.0000037937
  Total charge density g-space grids:           0.0000037937

  Overlap energy of the core charge distribution:               0.00000155876303
  Self energy of the core charge distribution:             -11221.21997975419799
  Core Hamiltonian energy:                                   3247.44526776188968
  Hartree energy:                                            4620.16061738271856
  Exchange-correlation energy:                              -1050.61766333880655

  Total energy:                                             -4404.23175638963312

 ENERGY| Total FORCE_EVAL ( QS ) energy (a.u.):            -4404.232308755582380


 *******************************************************************************
 ENSEMBLE TYPE                =                                              NVE
 STEP NUMBER                  =                                               10
 TIME [fs]                    =                                         5.000000
 CONSERVED QUANTITY [hartree] =                              -0.440318879238E+04

                                              INSTANTANEOUS             AVERAGES
 CPU TIME [s]                 =                       35.34                66.61
 ENERGY DRIFT PER ATOM [K]    =         -0.104592147068E+03  -0.959785617216E+02
 POTENTIAL ENERGY[hartree]    =         -0.440423230876E+04  -0.440443817492E+04
 KINETIC ENERGY [hartree]     =          0.104351637925E+01   0.124463627552E+01
 TEMPERATURE [K]              =                     286.411              341.612
 *******************************************************************************


 -------------------------------------------------------------------------------
 -                                                                             -
 -                                DBCSR STATISTICS                             -
 -                                                                             -
 -------------------------------------------------------------------------------
 COUNTER                                    TOTAL       BLAS       SMM       ACC
 flops     9 x    32 x    32           3321888768       0.0%    100.0%      0.0%
 flops    22 x    32 x    32           4060086272       0.0%    100.0%      0.0%
 flops     9 x     9 x   128        1420239992832       0.0%    100.0%      0.0%
 flops   256 x   128 x   128        1943472701440       0.0%    100.0%      0.0%
 flops    22 x     9 x   128        1972057190400       0.0%    100.0%      0.0%
 flops     9 x    22 x   128        1977770336256       0.0%    100.0%      0.0%
 flops    22 x    22 x   128        2734287699968       0.0%    100.0%      0.0%
 flops     9 x    32 x     9        5962613575680       0.0%    100.0%      0.0%
 flops    22 x    32 x     9        8325932617728       0.0%    100.0%      0.0%
 flops     9 x    32 x    22        8325932617728       0.0%    100.0%      0.0%
 flops   256 x   128 x  1280        9814000271360       0.0%    100.0%      0.0%
 flops    22 x    32 x    22       11452938371072       0.0%    100.0%      0.0%
 flops  2560 x   128 x   128       12090332938240       0.0%    100.0%      0.0%
 flops  2560 x   128 x  1280       27487790694400       0.0%    100.0%      0.0%
 flops inhomo. stacks                           0       0.0%      0.0%      0.0%
 flops total                        93.514751E+12       0.0%    100.0%      0.0%
 flops max/rank                      2.928533E+12       0.0%    100.0%      0.0%
 matmuls inhomo. stacks                         0       0.0%      0.0%      0.0%
 matmuls total                         3003278560       0.0%    100.0%      0.0%
 number of processed stacks               3781232       0.0%    100.0%      0.0%
 average stack size                                     0.0     794.3       0.0
 marketing flops                   144.579337E+12
 -------------------------------------------------------------------------------
 # multiplications                           2507
 max memory usage/rank             614.129664E+06
 # max total images/rank                        2
 # max 3D layers                                1
 # MPI messages exchanged                 1042912
 MPI messages size (bytes):
  total size                         2.716210E+12
  min size                           0.000000E+00
  max size                          26.214400E+06
  average size                       2.604448E+06
 MPI breakdown and total messages size (bytes):
             size <=      128                6424                        0
       128 < size <=     8192                   0                        0
      8192 < size <=    32768                 264                  8650752
     32768 < size <=   131072              281856              36943429632
    131072 < size <=  4194304              660064             996105256960
   4194304 < size <= 16777216               65632             931530938576
  16777216 < size                           28672             751619276800
 -------------------------------------------------------------------------------

 *** WARNING in dbcsr_mm.F:295 :: Using a non-square number of MPI ranks ***
 *** might lead to poor performance. Used ranks: 32 Suggested: 36 64     ***

 -------------------------------------------------------------------------------
 -                                                                             -
 -                      DBCSR MESSAGE PASSING PERFORMANCE                      -
 -                                                                             -
 -------------------------------------------------------------------------------
 ROUTINE             CALLS      AVE VOLUME [Bytes]
 MP_Group              187
 MP_Bcast               15                     12.
 MP_Allreduce        13350                     37.
 MP_Alltoall          9654                 390185.
 MP_Wait            160448
 MP_ISend            77994                1161941.
 MP_IRecv            77994                1161098.
 MP_Memory          121726
 -------------------------------------------------------------------------------

 MEMORY| Estimated peak process memory [MiB]                                 555

 -------------------------------------------------------------------------------
 -                                                                             -
 -                         MESSAGE PASSING PERFORMANCE                         -
 -                                                                             -
 -------------------------------------------------------------------------------

 ROUTINE             CALLS      AVE VOLUME [Bytes]
 MP_Group                4
 MP_Bcast             3985                  46069.
 MP_Allreduce        10917                   1032.
 MP_Sync                87
 MP_Alltoall          1723                9292606.
 MP_ISendRecv        15872                  75008.
 MP_Wait             29756
 MP_comm_split          83
 MP_ISend            11748                 275205.
 MP_IRecv            11748                 275205.
 -------------------------------------------------------------------------------


 -------------------------------------------------------------------------------
 -                                                                             -
 -                           R E F E R E N C E S                               -
 -                                                                             -
 -------------------------------------------------------------------------------
 
 CP2K version 7.1, the CP2K developers group (2019).
 CP2K is freely available from https://www.cp2k.org/ .

 Schuett, Ole; Messmer, Peter; Hutter, Juerg; VandeVondele, Joost. 
 Electronic Structure Calculations on Graphics Processing Units, John
 Wiley & Sons, Ltd, 173-190 (2016). 
 GPU-Accelerated Sparse Matrix-Matrix Multiplication for
 Linear Scaling Density Functional Theory.
 https://dx.doi.org/10.1002/9781118670712.ch8

 Borstnik, U; VandeVondele, J; Weber, V; Hutter, J. 
 PARALLEL COMPUTING, 40 (5-6), 47-58 (2014). 
 Sparse matrix multiplication: The distributed block-compressed sparse
 row library.
 https://dx.doi.org/10.1016/j.parco.2014.03.012

 Hutter, J; Iannuzzi, M; Schiffmann, F; VandeVondele, J. 
 WIREs Comput Mol Sci., 4 (1), 15-25 (2014). 
 CP2K: atomistic simulations of condensed matter systems.
 https://dx.doi.org/10.1002/wcms.1159

 Krack, M. 
 THEORETICAL CHEMISTRY ACCOUNTS, 114 (1-3), 145-152 (2005). 
 Pseudopotentials for H to Kr optimized for gradient-corrected
 exchange-correlation functionals.
 https://dx.doi.org/10.1007/s00214-005-0655-y

 VandeVondele, J; Krack, M; Mohamed, F; Parrinello, M; Chassaing, T;
 Hutter, J. COMPUTER PHYSICS COMMUNICATIONS, 167 (2), 103-128 (2005). 
 QUICKSTEP: Fast and accurate density functional calculations using a
 mixed Gaussian and plane waves approach.
 https://dx.doi.org/10.1016/j.cpc.2004.12.014

 Frigo, M; Johnson, SG. 
 PROCEEDINGS OF THE IEEE, 93 (2), 216-231 (2005). 
 The design and implementation of FFTW3.
 https://dx.doi.org/10.1109/JPROC.2004.840301

 VandeVondele, J; Hutter, J. 
 JOURNAL OF CHEMICAL PHYSICS, 118 (10), 4365-4369 (2003). 
 An efficient orbital transformation method for electronic structure
 calculations.
 https://dx.doi.org/10.1063/1.1543154

 Hartwigsen, C; Goedecker, S; Hutter, J. 
 PHYSICAL REVIEW B, 58 (7), 3641-3662 (1998). 
 Relativistic separable dual-space Gaussian pseudopotentials from H to Rn.
 https://dx.doi.org/10.1103/PhysRevB.58.3641

 Lippert, G; Hutter, J; Parrinello, M. 
 MOLECULAR PHYSICS, 92 (3), 477-487 (1997). 
 A hybrid Gaussian and plane wave density functional scheme.
 https://dx.doi.org/10.1080/002689797170220

 Goedecker, S; Teter, M; Hutter, J. 
 PHYSICAL REVIEW B, 54 (3), 1703-1710 (1996). 
 Separable dual-space Gaussian pseudopotentials.
 https://dx.doi.org/10.1103/PhysRevB.54.1703


 -------------------------------------------------------------------------------
 -                                                                             -
 -                                T I M I N G                                  -
 -                                                                             -
 -------------------------------------------------------------------------------
 SUBROUTINE                       CALLS  ASD         SELF TIME        TOTAL TIME
                                MAXIMUM       AVERAGE  MAXIMUM  AVERAGE  MAXIMUM
 CP2K                                 1  1.0    0.038    0.056  666.491  666.497
 qs_mol_dyn_low                       1  2.0    0.007    0.008  666.117  666.148
 qs_forces                           11  3.9    0.003    0.004  665.979  665.984
 qs_energies                         11  4.9    0.002    0.002  637.778  637.855
 scf_env_do_scf                      11  5.9    0.001    0.001  586.368  586.409
 scf_env_do_scf_inner_loop          117  6.6    0.006    0.011  509.012  509.020
 velocity_verlet                     10  3.0    0.002    0.002  429.124  429.131
 dbcsr_multiply_generic            2507 12.6    0.239    0.264  296.231  299.851
 qs_scf_new_mos                     117  7.6    0.001    0.001  252.612  253.343
 qs_scf_loop_do_ot                  117  8.6    0.001    0.001  252.611  253.342
 multiply_cannon                   2507 13.6    0.472    0.519  226.290  232.637
 ot_scf_mini                        117  9.6    0.004    0.004  229.201  229.926
 rebuild_ks_matrix                  128  8.3    0.001    0.001  185.677  186.801
 qs_ks_build_kohn_sham_matrix       128  9.3    0.021    0.025  185.676  186.800
 multiply_cannon_multrec          20056 14.6  166.401  172.337  166.436  172.372
 qs_ks_update_qs_env                128  7.6    0.001    0.001  165.315  166.262
 ot_mini                            117 10.6    0.002    0.002  142.778  143.942
 sum_up_and_integrate               128 10.3    0.220    0.281  122.645  122.821
 integrate_v_rspace                 128 11.3   87.661   91.093  122.424  122.626
 qs_rho_update_rho                  128  7.7    0.001    0.001  115.501  116.132
 calculate_rho_elec                 128  8.7   74.831   77.095  115.500  116.131
 init_scf_loop                       11  6.9    0.001    0.001   76.572   76.574
 ot_diis_step                       117 11.6    0.009    0.011   73.765   73.770
 apply_preconditioner_dbcsr         128 12.6    0.000    0.001   67.854   70.075
 apply_single                       128 13.6    0.001    0.001   67.854   70.074
 qs_ot_get_derivative               117 11.6    0.002    0.002   68.058   68.785
 mp_waitall_1                    178456 15.9   58.598   65.219   58.598   65.219
 prepare_preconditioner              11  7.9    0.000    0.000   55.006   55.268
 make_preconditioner                 11  8.9    0.000    0.000   55.006   55.268
 make_full_inverse_cholesky          11  9.9    0.000    0.000   50.373   50.577
 multiply_cannon_metrocomm3       20056 14.6    0.111    0.126   43.208   48.278
 make_m2s                          5014 13.6    0.181    0.211   43.551   44.205
 init_scf_run                        11  5.9    0.000    0.001   38.289   38.292
 scf_env_initial_rho_setup           11  6.9    0.000    0.002   38.288   38.292
 pw_transfer                       1547 11.6    0.117    0.144   33.606   34.772
 density_rs2pw                      128  9.7    0.008    0.009   31.889   34.464
 wfi_extrapolate                     11  7.9    0.002    0.002   34.394   34.395
 fft_wrap_pw1pw2                   1291 12.7    0.016    0.019   32.632   33.900
 make_images                       5014 14.6    0.730    0.767   31.037   32.172
 fft_wrap_pw1pw2_140                523 13.2    2.275    2.763   28.592   30.906
 qs_ot_get_derivative_diag           77 12.4    0.003    0.003   29.799   30.501
 rs_pw_transfer                    1046 11.9    0.022    0.026   24.892   28.276
 cp_fm_cholesky_invert               11 10.9   28.068   28.079   28.068   28.079
 qs_ot_get_p                        128 10.4    0.001    0.002   26.461   27.922
 calculate_dm_sparse                128  9.5    0.001    0.002   26.060   26.706
 rs_distribute_matrix               267 11.0    3.164    3.659   21.577   26.699
 mp_alltoall_d11v                  2426 14.1   19.865   26.071   19.865   26.071
 fft3d_ps                          1291 14.7   11.722   14.198   24.927   25.948
 mp_sum_l                         11967 13.6   17.976   24.438   17.976   24.438
 qs_ks_update_qs_env_forces          11  4.9    0.000    0.000   21.579   21.803
 mp_sum_d                          4455 12.1   13.547   20.489   13.547   20.489
 cp_dbcsr_sm_fm_multiply             37  9.5    0.002    0.003   19.673   19.838
 mp_waitany                       11748 13.9   15.070   19.555   15.070   19.555
 potential_pw2rs                    128 12.3    0.018    0.020   17.895   18.155
 hybrid_alltoall_any               5200 16.5    4.187   11.640   16.509   18.012
 qs_ot_get_orbitals                 117 10.6    0.001    0.001   17.042   17.311
 rs_pw_transfer_RS2PW_140           139 11.5    1.154    1.387   13.514   16.850
 cp_fm_cholesky_decompose            22 10.9   15.687   15.938   15.687   15.938
 dbcsr_make_dense_low              8629 15.6    0.094    0.107   15.021   15.913
 make_dense_data                   8629 16.6   14.805   15.687   14.871   15.760
 make_images_data                  5014 15.6    0.095    0.107   14.803   15.692
 dbcsr_dot_sd                      1318 12.0    2.209    2.374   11.252   15.688
 multiply_cannon_metrocomm4       17549 14.6    0.090    0.108    7.006   15.357
 mp_irecv_dv                      50230 15.5    6.981   15.329    6.981   15.329
 mp_alltoall_z22v                  1291 16.7   10.039   14.944   10.039   14.944
 cp_dbcsr_sm_fm_multiply_core        37 10.5    0.000    0.000   13.857   14.307
 dbcsr_complete_redistribute        395 12.7    8.580    9.373   13.146   13.496
 dbcsr_make_images_dense           4384 14.8    0.068    0.076   12.241   13.021
 copy_dbcsr_to_fm                   186 11.8    0.005    0.006   11.649   12.039
 make_images_pack                  5014 15.6   11.374   11.937   11.406   11.970
 qs_ot_get_derivative_taylor         40 13.0    0.002    0.002   11.420   11.787
 qs_ot_p2m_diag                      83 11.4    0.187    0.202   11.225   11.253
 cp_dbcsr_syevd                      83 12.4    0.007    0.009    9.728    9.729
 cp_fm_syevd                         83 13.4    0.001    0.001    9.350    9.354
 cp_fm_redistribute_end              83 14.4    3.529    9.277    3.547    9.286
 cp_fm_syevd_base                    83 14.4    5.719    9.167    5.719    9.167
 copy_fm_to_dbcsr                   209 11.7    0.002    0.003    8.564    8.906
 x_to_yz                            640 16.2    2.025    2.869    6.890    8.612
 yz_to_x                            651 15.2    1.107    1.456    6.282    8.473
 make_basis_sm                       11  9.8    0.001    0.001    7.293    7.349
 qs_energies_init_hamiltonians       11  5.9    0.001    0.002    7.129    7.129
 dbcsr_finalize                    6041 13.6    0.046    0.054    5.506    6.809
 dbcsr_merge_all                   3200 14.6    1.315    1.731    5.371    6.676
 cp_gemm                             81  9.0    0.001    0.001    6.486    6.668
 cp_gemm_fm_gemm                     81 10.0    0.001    0.001    6.486    6.667
 cp_fm_gemm                          81 11.0    6.485    6.667    6.485    6.667
 reorthogonalize_vectors             10  9.0    0.000    0.000    6.512    6.569
 dbcsr_desymmetrize_deep            186 12.8    0.309    0.349    5.536    6.333
 cp_dbcsr_plus_fm_fm_t_native        22  8.9    0.001    0.001    5.629    5.828
 qs_energies_compute_matrix_w        11  5.9    0.000    0.000    5.664    5.763
 calculate_w_matrix_ot               11  6.9    0.006    0.008    5.664    5.763
 rs_pw_transfer_PW2RS_140           139 14.0    2.831    3.727    5.164    5.662
 transfer_dbcsr_to_fm                11 10.9    0.000    0.000    5.296    5.548
 build_core_hamiltonian_matrix_      11  4.9    0.000    0.001    4.936    5.456
 ot_scf_init                         11  7.9    0.001    0.002    5.069    5.284
 transfer_fm_to_dbcsr                11  9.9    0.000    0.000    4.583    4.981
 qs_vxc_create                      128 10.3    0.002    0.003    4.203    4.925
 xc_vxc_pw_create                   128 11.3    0.154    0.170    4.200    4.923
 qs_env_update_s_mstruct             11  6.9    0.000    0.001    4.360    4.625
 fft_wrap_pw1pw2_50                 256 14.0    0.125    0.171    3.288    4.539
 make_images_sizes                 5014 15.6    0.006    0.007    2.737    4.392
 mp_alltoall_i44                   5014 16.6    2.731    4.386    2.731    4.386
 mp_alltoall_i22                    716 14.1    3.070    4.361    3.070    4.361
 buffer_matrices_ensure_size       5014 14.6    3.642    3.931    3.653    3.943
 mp_allgather_i34                  2507 14.6    3.002    3.666    3.002    3.666
 pw_gather_p                        651 14.2    2.567    3.282    2.567    3.282
 pw_scatter_p                       640 15.2    2.681    3.273    2.681    3.273
 dbcsr_make_dense                  2053 14.0    0.013    0.014    2.961    3.228
 build_core_hamiltonian_matrix       11  6.9    0.001    0.001    2.536    3.064
 build_core_ppl_forces               11  5.9    2.541    3.024    2.541    3.024
 xc_rho_set_and_dset_create         128 12.3    0.004    0.005    2.722    3.018
 pw_poisson_solve                   128 10.3    1.667    1.829    2.955    2.955
 xc_functional_eval                 128 13.3    2.613    2.932    2.613    2.932
 rs_pw_transfer_PW2RS_50            128 14.3    1.212    1.387    2.446    2.817
 qs_create_task_list                 11  7.9    0.000    0.000    2.722    2.773
 generate_qs_task_list               11  8.9    0.643    0.725    2.722    2.773
 dbcsr_add_d                       1769 12.8    0.005    0.007    2.518    2.710
 dbcsr_add_anytype                 1769 13.8    2.296    2.495    2.513    2.706
 dbcsr_data_release              179438 16.2    0.574    1.278    1.182    2.579
 calculate_first_density_matrix       1  7.0    0.000    0.000    2.480    2.513
 tree_to_linear_d                  1136 14.7    1.953    2.479    1.953    2.479
 dbcsr_destroy                    34539 14.2    0.085    0.112    1.088    2.357
 dbcsr_copy                        2358 11.8    2.013    2.256    2.089    2.330
 multiply_cannon_metrocomm1       20056 14.6    0.053    0.063    1.329    2.327
 dbcsr_data_copy_aa2               1324 14.1    1.731    2.197    1.731    2.197
 distribute_tasks                    11  9.9    0.200    0.219    2.079    2.164
 rs_grid_zero                       790 11.5    1.792    1.924    1.792    1.924
 mp_bcast_b                        1900 13.7    1.086    1.902    1.086    1.902
 external_control                   127  7.2    0.002    0.021    1.073    1.888
 arnoldi_extremal                   128 11.4    0.003    0.003    1.479    1.865
 arnoldi_normal_ev                  128 12.4    0.003    0.004    1.477    1.862
 build_core_ppl                      11  7.9    1.519    1.858    1.519    1.858
 rs_pw_transfer_RS2PW_50            128 11.7    0.952    1.163    1.773    1.858
 calculate_rho_core                  11  7.9    0.044    0.055    1.563    1.840
 pw_copy                           1024 12.7    1.525    1.807    1.525    1.807
 dbcsr_make_undense                2053 14.0    1.535    1.746    1.578    1.790
 calculate_ecore_overlap             22  5.9    0.001    0.001    1.281    1.781
 dbcsr_add_wm_from_matrix           479 12.9    0.003    0.004    1.480    1.605
 dbcsr_fill_wm_from_matrix          479 13.9    1.469    1.594    1.471    1.596
 cp_fm_upper_to_full                 22 12.4    1.273    1.503    1.273    1.503
 arnoldi_init                       128 13.4    0.002    0.004    1.088    1.473
 mp_deallocate_d                  27434 17.2    0.620    1.380    0.620    1.380
 dbcsr_special_finalize            7521 15.6    0.027    0.031    1.161    1.331
 evaluate_core_matrix_traces        128  8.3    0.001    0.001    1.215    1.257
 calculate_ptrace_kp                256  9.3    0.001    0.001    1.214    1.257
 load_balance_distributed            22 10.9    0.000    0.000    1.183    1.256
 build_core_ppnl_forces              11  5.9    1.092    1.199    1.092    1.199
 compute_load_list                   44 11.9    0.717    0.804    1.106    1.172
 rs_pw_transfer_PW2RS_20            128 14.3    0.303    0.368    0.927    1.152
 build_kinetic_matrix                22  6.9    0.926    1.037    0.978    1.106
 build_overlap_matrix                22  6.9    0.894    1.002    0.960    1.088
 get_current_loads                  132 11.9    0.557    0.624    0.917    1.044
 dbcsr_new_transposed              1139 13.5    0.032    0.037    0.855    1.044
 dbcsr_redistribute                 135 14.6    0.086    0.097    0.781    0.974
 dbcsr_merge_single_wm              908 14.6    0.025    0.030    0.748    0.912
 pw_axpy                            640 10.6    0.718    0.881    0.718    0.881
 mp_irecv_dm3                      3204 13.9    0.291    0.877    0.291    0.877
 dbcsr_make_untransposed_blocks    2986 13.5    0.667    0.840    0.682    0.857
 dbcsr_matrix_vector_mult          1823 14.1    0.012    0.014    0.776    0.854
 dbcsr_sort_data                    908 15.6    0.693    0.848    0.693    0.848
 fft_wrap_pw1pw2_20                 256 14.0    0.032    0.043    0.633    0.847
 mp_sum_iv                          494 12.8    0.570    0.847    0.570    0.847
 mp_sum_dm                          460  4.9    0.570    0.802    0.570    0.802
 copy_fm_to_dbcsr_bc                209 12.7    0.492    0.551    0.701    0.759
 rs_pw_transfer_RS2PW_20            128 11.7    0.204    0.246    0.676    0.705
 copy_dbcsr_to_fm_bc                186 12.8    0.633    0.698    0.635    0.700
 dbcsr_zero                        4657 15.9    0.577    0.651    0.577    0.651
 dbcsr_set                         4503 15.0    0.005    0.006    0.576    0.650
 cp_fm_triangular_multiply           11 10.8    0.609    0.636    0.609    0.636
 setup_rec_index_2d                5014 14.6    0.571    0.625    0.571    0.625
 multiply_cannon_metrocomm2       15042 14.6    0.056    0.065    0.235    0.588
 mp_alltoall_l                      143 12.8    0.369    0.543    0.369    0.543
 dbcsr_col_vec_to_rep_row          1823 15.1    0.007    0.011    0.370    0.510
 integrate_v_core_rspace             11  7.9    0.046    0.066    0.446    0.510
 mp_bcast_dv                       1906 16.1    0.360    0.507    0.360    0.507
 mp_alltoall_i11v                  1776 14.1    0.307    0.479    0.307    0.479
 dbcsr_reserve_blocks               809 14.5    0.390    0.442    0.413    0.466
 dbcsr_sort_indices               15303 16.5    0.430    0.461    0.430    0.461
 cp_fm_create                       457 13.1    0.376    0.444    0.376    0.444
 quick_finalize                    9112 16.3    0.067    0.079    0.404    0.433
 mp_sum_dv                         7094 15.3    0.225    0.416    0.225    0.416
 dbcsr_create_new                 35675 15.1    0.154    0.169    0.353    0.407
 build_subspace                     128 13.4    0.009    0.010    0.359    0.360
 merge_index                       3200 15.6    0.314    0.328    0.314    0.328
 cp_dbcsr_alloc_block_from_nbl       88  7.7    0.059    0.088    0.269    0.325
 build_core_ppnl                     11  7.9    0.274    0.324    0.274    0.324
 dbcsr_data_new                   96581 15.8    0.142    0.206    0.227    0.305
 qs_ot_p2m_taylor                    45 11.5    0.000    0.001    0.285    0.299
 cp_dbcsr_cholesky_decompose         11 12.9    0.061    0.061    0.205    0.264
 load_balance_replicated             11 10.9    0.008    0.018    0.237    0.247
 dbcsr_reserve_all_blocks           721 14.2    0.004    0.005    0.207    0.233
 pw_zero                            128 10.7    0.196    0.228    0.196    0.228
 rs_pw_transfer_PW2RS_10            128 14.3    0.053    0.058    0.208    0.228
 mp_isendrecv_dv                  15872 14.0    0.134    0.218    0.134    0.218
 cp_fm_release                      462 12.9    0.095    0.218    0.095    0.218
 dbcsr_matrix_vector_mult_local    1823 15.1    0.195    0.204    0.199    0.208
 qs_init_subsys                       1  2.0    0.004    0.005    0.200    0.200
 dbcsr_mm_multrec_init             2507 14.6    0.009    0.011    0.187    0.200
 mp_isend_dv                      50230 15.5    0.168    0.199    0.168    0.199
 qs_env_setup                         1  3.0    0.001    0.001    0.189    0.190
 dbcsr_mm_csr_init                 2507 15.6    0.096    0.102    0.179    0.189
 qs_env_rebuild_pw_env               23  5.3    0.000    0.001    0.187    0.188
 pw_env_rebuild                       1  5.0    0.001    0.001    0.187    0.187
 rs_pw_transfer_RS2PW_10            128 11.7    0.038    0.040    0.163    0.180
 build_qs_neighbor_lists             11  6.9    0.001    0.001    0.156    0.179
 setup_buffer_matrices             5014 14.6    0.027    0.031    0.128    0.166
 create_local_tasks                  11 10.9    0.087    0.106    0.160    0.163
 mp_irecv_iv                      45674 15.7    0.108    0.156    0.108    0.156
 pw_grid_setup                        4  6.0    0.000    0.000    0.155    0.155
 pw_grid_setup_internal               4  7.0    0.005    0.007    0.155    0.155
 dbcsr_cholesky_invert               11 12.9    0.102    0.105    0.154    0.154
 mp_cart_create                     191 13.6    0.106    0.148    0.106    0.148
 mp_allocate_d                    27434 17.4    0.097    0.145    0.097    0.145
 dbcsr_scale_anytype               2015 14.7    0.115    0.133    0.118    0.135
 dbcsr_scale_d                      246 13.5    0.001    0.001    0.116    0.134
 cleanup_scf_loop                    11  7.9    0.000    0.001    0.030    0.131
 mp_isend_iv                      45663 15.7    0.101    0.126    0.101    0.126
 md_output                           10  3.0    0.000    0.001    0.011    0.122
 fft_wrap_pw1pw2_10                 256 14.0    0.008    0.012    0.103    0.121
 pw_grid_sort                         4  8.0    0.053    0.066    0.093    0.116
 cp_fm_redistribute_start            83 14.4    0.062    0.081    0.083    0.109
 md_write_output                     11  3.9    0.002    0.060    0.005    0.109
 optimize_load_list                  22 11.9    0.000    0.000    0.076    0.106
 wfs_update                          11  5.9    0.001    0.001    0.076    0.104
 mp_bcast_i3                         22 12.9    0.059    0.103    0.059    0.103
 cp_fm_init_random                    1  8.0    0.090    0.102    0.091    0.102
 dbcsr_make_index_exist           35675 16.1    0.066    0.072    0.093    0.100
 update_particle_set                 20  4.0    0.000    0.000    0.093    0.097
 dbcsr_iterator_stop              37764 16.0    0.069    0.076    0.087    0.096
 dbcsr_iterator_start             37764 16.0    0.061    0.068    0.085    0.096
 qs_env_rebuild_rho                  11  7.9    0.000    0.000    0.074    0.087
 qs_rho_rebuild                      11  8.9    0.000    0.002    0.074    0.087
 mp_sum_root_iv                      22 12.9    0.015    0.083    0.015    0.083
 dbcsr_work_create                13200 14.8    0.043    0.051    0.061    0.082
 fill_hash_tables                  2507 16.6    0.077    0.081    0.077    0.081
 build_neighbor_lists_sac_ppl        11  7.9    0.059    0.070    0.059    0.070
 cp_fm_scale_and_add                 24  9.0    0.040    0.067    0.040    0.067
 pw_scale                           128 10.3    0.042    0.065    0.042    0.065
 dbcsr_switch_data_area           21706 16.5    0.026    0.031    0.058    0.065
 cp_fm_to_fm_matrix                  21  7.9    0.055    0.063    0.055    0.063
 make_full_kinetic                   11  9.9    0.000    0.000    0.050    0.062
 dbcsr_copy_into_existing            22  7.9    0.050    0.062    0.050    0.062
 dbcsr_scale_by_vector_anytype      283 11.6    0.058    0.061    0.059    0.062
 mp_allocate_i                    33440 17.0    0.048    0.057    0.048    0.057
 pw_grid_remap                        4  8.0    0.003    0.004    0.030    0.055
 mp_deallocate_i                  33440 16.7    0.047    0.054    0.047    0.054
 mp_sum_im3                           4  9.0    0.027    0.053    0.027    0.053
 dbcsr_distribution_new           13812 14.1    0.049    0.052    0.049    0.052
 sort_shells                          4  9.0    0.040    0.051    0.040    0.051
 qs_scf_ensure_work_matrices         11  5.9    0.000    0.000    0.032    0.051
 dbcsr_make_dists_dense            2192 13.8    0.038    0.039    0.049    0.050
 write_trajectory                    44  4.9    0.001    0.012    0.002    0.049
 dbcsr_work_destroy_all           13200 15.8    0.030    0.035    0.040    0.049
 create_qs_kind_set                   1  2.0    0.000    0.000    0.042    0.046
 read_qs_kind                         2  3.0    0.015    0.021    0.042    0.045
 dbcsr_make_index_list             7521 14.6    0.039    0.043    0.039    0.043
 mp_alltoall_l11v                    11 11.9    0.039    0.043    0.039    0.043
 dbcsr_mm_multrec_finalize         2507 15.6    0.033    0.040    0.035    0.043
 dbcsr_make_dbcsr_index           15426 16.5    0.036    0.039    0.036    0.039
 write_particle_coordinates          11  5.9    0.001    0.037    0.001    0.037
 build_neighbor_lists_sab_all        11  7.9    0.032    0.037    0.032    0.037
 Gram_Schmidt_ortho_d              1695 14.1    0.003    0.008    0.029    0.037
 build_neighbor_lists_sap_ppnl       11  7.9    0.032    0.037    0.032    0.037
 dbcsr_get_data_size_used          5679 14.8    0.031    0.036    0.031    0.036
 parser_read_line                  2169  4.0    0.001    0.001    0.027    0.035
 parser_read_line_low                 4  5.0    0.005    0.013    0.026    0.034
 mp_max_l                            22  1.8    0.031    0.033    0.031    0.033
 mp_max_i                           386  1.6    0.020    0.032    0.020    0.032
 broadcast_input_information          4  6.0    0.000    0.000    0.021    0.031
 build_neighbor_lists_sab_orb        11  7.9    0.026    0.030    0.026    0.030
 dbcsr_iterator_seek              37764 17.0    0.024    0.029    0.024    0.029
 dbcsr_hadamard_product             154 13.4    0.017    0.019    0.025    0.029
 transpose_index_local             1139 14.5    0.007    0.008    0.026    0.028
 cp_fm_scale                         10  9.0    0.014    0.026    0.014    0.026
 mp_bcast_i                         101  2.8    0.016    0.026    0.016    0.026
 topology_control                     1  2.0    0.001    0.001    0.021    0.025
 mp_isend_dm3                      3204 13.9    0.020    0.025    0.020    0.025
 compute_max_radius                   1  6.0    0.021    0.024    0.021    0.024
 write_restart                       10  4.0    0.001    0.015    0.006    0.024
 mp_comm_free                       654 13.7    0.006    0.023    0.006    0.023
 pw_grid_assign                       4  8.0    0.018    0.021    0.021    0.022
 calculate_atomic_block_dm            1  8.0    0.002    0.002    0.021    0.021
 mp_sum_b                          4417 13.8    0.020    0.020    0.020    0.020
 mp_comm_split                       83 15.4    0.015    0.019    0.015    0.019
 scf_env_release                      3  4.0    0.000    0.000    0.001    0.019
 destroy_preconditioner               1  3.0    0.001    0.019    0.001    0.019
 mp_cart_sub                        374 13.7    0.018    0.018    0.018    0.018
 restraint_control                   11  3.9    0.000    0.000    0.016    0.018
 compute_evals                      128 13.4    0.016    0.017    0.016    0.017
 mp_sum_i                            12  4.6    0.014    0.016    0.014    0.016
 dbcsr_index_prune_deleted         6576 15.8    0.011    0.014    0.011    0.014
 mp_rank_compare                   1291 15.7    0.011    0.013    0.011    0.013
 get_fft_scratch                   1292 15.7    0.012    0.013    0.012    0.013
 connectivity_control                 1  3.0    0.000    0.001    0.010    0.012
 topology_generate_bond               1  4.0    0.000    0.000    0.009    0.010
 dbcsr_gershgorin_norm               47 11.0    0.002    0.002    0.009    0.010
 qs_ks_did_change                   139  7.7    0.000    0.000    0.001    0.010
 create_fast_row_vec_access        1823 15.1    0.002    0.002    0.009    0.010
 create_fast_col_vec_access        1823 15.1    0.001    0.002    0.009    0.010
 dbcsr_make_index_local_row        7521 14.6    0.008    0.010    0.008    0.010
 dbcsr_get_local_cols              4560 14.2    0.009    0.010    0.009    0.010
 mp_bcast_am                          4  7.0    0.006    0.008    0.007    0.009
 mp_environ_l                      1954 14.5    0.008    0.009    0.008    0.009
 coordinate_control                   1  3.0    0.000    0.000    0.007    0.009
 coordinate_control_READ_COORDI       1  4.0    0.000    0.000    0.007    0.009
 DGKS_ortho_d                      1695 14.1    0.002    0.005    0.006    0.009
 build_neighbor_lists_sab_core       11  7.9    0.007    0.009    0.007    0.009
 update_input                         1  5.0    0.000    0.000    0.005    0.009
 read_atoms_input                     1  5.0    0.007    0.009    0.007    0.009
 create_fast_col_vec_access_d      1823 16.1    0.005    0.005    0.008    0.008
 update_subsys                        1  6.0    0.000    0.000    0.005    0.008
 mp_bcast_im                        129 14.4    0.005    0.008    0.005    0.008
 create_fast_row_vec_access_d      1823 16.1    0.004    0.004    0.008    0.008
 dbcsr_get_local_rows              4560 14.2    0.008    0.008    0.008    0.008
 section_coord_val_set                1  7.0    0.005    0.008    0.005    0.008
 mp_sync                             87 14.8    0.004    0.008    0.004    0.008
 rs_grid_create_descriptor            4  6.0    0.000    0.000    0.004    0.007
 dbcsr_mm_sched_init               2507 16.6    0.004    0.005    0.006    0.007
 mp_comm_compare                   1294 15.7    0.006    0.006    0.006    0.006
 topology_generate_bond_3             1  5.0    0.000    0.000    0.005    0.006
 build_fist_neighbor_lists            1  6.0    0.000    0.000    0.005    0.006
 pw_pool_create_pw                 2596 11.8    0.004    0.005    0.005    0.006
 build_neighbor_lists                 1  7.0    0.005    0.006    0.005    0.006
 create_col_vec_from_matrix         256 13.4    0.001    0.001    0.004    0.006
 fft3d_s                              1  2.0    0.000    0.000    0.005    0.006
 mp_bcast_av                        555  1.0    0.002    0.002    0.005    0.005
 mp_environ_c                      1291 15.7    0.004    0.005    0.004    0.005
 scf_post_calculation_gpw            11  5.9    0.001    0.001    0.003    0.005
 pw_poisson_rebuild                 128 11.3    0.003    0.005    0.003    0.005
 mp_maxloc_dv                      1111  1.0    0.005    0.005    0.005    0.005
 pw_pool_give_back_pw              3083 12.0    0.004    0.005    0.004    0.005
 dbcsr_get_global_row_map          2507 13.6    0.004    0.004    0.004    0.004
 mp_comm_dup                          8  6.5    0.004    0.004    0.004    0.004
 pw_grid_distribute                   4  8.0    0.002    0.003    0.004    0.004
 read_qs_section                      1  3.0    0.003    0.004    0.003    0.004
 mp_allgather_l                     143 12.8    0.003    0.004    0.003    0.004
 scf_c_write_parameters               1  3.0    0.000    0.004    0.000    0.004
 dbcsr_get_global_col_map          2507 13.6    0.003    0.004    0.003    0.004
 topology_connectivity_pack           1  3.0    0.000    0.000    0.003    0.003
 dbcsr_add_on_diag                   90 12.5    0.000    0.001    0.002    0.003
 write_mo_set_to_restart            117  7.6    0.002    0.003    0.002    0.003
 write_available_results             11  6.9    0.000    0.000    0.002    0.003
 ot_scf_read_input                   11  7.9    0.000    0.001    0.001    0.003
 write_qs_control                     1  3.0    0.002    0.003    0.002    0.003
 topology_generate_bond_4             1  5.0    0.002    0.003    0.002    0.003
 calculate_atom                       2  9.0    0.000    0.000    0.002    0.003
 calculate_atom_restricted            2 10.0    0.002    0.003    0.002    0.003
 qs_scf_loop_print                  117  7.6    0.002    0.003    0.002    0.003
 ot_readwrite_input                  11  8.9    0.000    0.003    0.000    0.003
 dbcsr_mm_sched_finalize           2507 16.6    0.002    0.003    0.002    0.003
 rot_ana                              1  3.0    0.000    0.000    0.001    0.003
 create_replicated_col_vec_from     128 13.4    0.000    0.001    0.002    0.002
 init_cube_info                       4  6.0    0.002    0.002    0.002    0.002
 diamat_all                           1  4.0    0.001    0.002    0.001    0.002
 write_mo_free_results               11  7.9    0.001    0.001    0.001    0.002
 pw_create                          409 12.9    0.002    0.002    0.002    0.002
 create_replicated_row_vec_from     128 13.4    0.000    0.001    0.002    0.002
 qs_scf_ensure_mos                   11  5.9    0.000    0.000    0.001    0.002
 mp_sum_partial_im                   22 12.9    0.001    0.002    0.001    0.002
 mp_sum_im                           88 14.6    0.002    0.002    0.002    0.002
 create_local_fixd_list              11  4.9    0.002    0.002    0.002    0.002
 fix_atom_control                    11  3.9    0.001    0.002    0.001    0.002
 cp_fm_set_all                        1  8.0    0.001    0.002    0.001    0.002
 dbcsr_mm_hostdrv_init             2507 17.6    0.001    0.002    0.001    0.002
 mp_bcast_iv                         23  3.9    0.001    0.002    0.001    0.002
 qs_scf_print_scf_summary            11  7.9    0.000    0.001    0.000    0.001
 init_qs_kind_set                     1  3.0    0.000    0.000    0.001    0.001
 init_qs_kind                         2  4.0    0.000    0.000    0.001    0.001
 init_orb_basis_set                   2  5.0    0.000    0.000    0.001    0.001
 init_cphi_and_sphi                   2  6.0    0.001    0.001    0.001    0.001
 atom_int_setup                       2  9.0    0.001    0.001    0.001    0.001
 release_fast_vec_access           3646 15.1    0.001    0.001    0.001    0.001
 write_mo_dependent_results          11  7.9    0.001    0.001    0.001    0.001
 topology_connectivity_pack_2         1  4.0    0.001    0.001    0.001    0.001
 set_mo_occupation_1                129  9.4    0.001    0.001    0.001    0.001
 qs_efield_local_operator           128 10.3    0.001    0.001    0.001    0.001
 topology_generate_bond_1             1  5.0    0.001    0.001    0.001    0.001
 setup_velocities                     1  3.0    0.000    0.000    0.001    0.001
 distribute_molecules_2d              1  4.0    0.001    0.001    0.001    0.001
 rs_grid_create                      26  9.3    0.000    0.001    0.000    0.001
 initialize_velocities                1  4.0    0.001    0.001    0.001    0.001
 calculate_atom_vxc_lda              10 11.0    0.001    0.001    0.001    0.001
 connectivity_control_check_ele       1  4.0    0.000    0.001    0.000    0.001
 check_generate_mol                   1  6.0    0.001    0.001    0.001    0.001
 -------------------------------------------------------------------------------

 The number of warnings for this run is : 2
 
 -------------------------------------------------------------------------------
  **** **** ******  **  PROGRAM ENDED AT                 2020-09-10 20:03:34.980
 ***** ** ***  *** **   PROGRAM RAN ON                         openhpc-compute-0
 **    ****   ******    PROGRAM RAN BY                                    steveb
 ***** **    ** ** **   PROGRAM PROCESS ID                                 19244
  **** **  *******  **  PROGRAM STOPPED IN /alaska/steveb/hpc-tests/stage/alaska
                                           /ib-gcc9-openmpi4-ucx/cp2k/Cp2k_H2O_2
                                           56_1
