 +-------------------------------------------------+
 |                                                 |
 |      CCC   AA    SSS  TTTTT  EEEEE  PPPP        |
 |     C     A  A  S       T    E      P   P       |
 |     C     AAAA   SS     T    EEE    PPPP        |
 |     C     A  A     S    T    E      P           |
 |      CCC  A  A  SSS     T    EEEEE  P           |
 |                                                 |
 +-------------------------------------------------+
 |                                                 |
 | Welcome to Academic Release CASTEP version 17.21|          
 | Ab Initio Total Energy Program                  |
 |                                                 |
 | Authors:                                        |
 | M. Segall, M. Probert, C. Pickard, P. Hasnip,   |
 | S. Clark, K. Refson, J. R. Yates, M. Payne      |
 |                                                 |
 | Contributors:                                   |
 | P. Lindan, P. Haynes, J. White, V. Milman,      |
 | N. Govind, M. Gibson, P. Tulip, V. Cocula,      |
 | B. Montanari, D. Quigley, M. Glover,            |
 | L. Bernasconi, A. Perlov, M. Plummer,           |
 | E. McNellis, J. Meyer, J. Gale, D. Jochym       |
 | J. Aarons, B. Walker, R. Gillen, D. Jones       |
 | T. Green, I. J. Bush, C. J. Armstrong,          |
 | E. J. Higgins, E. L. Brown, M. S. McFly,        |
 | J. Wilkins, B-C. Shih, P. J. P. Byrne           |
 |                                                 |
 | Copyright (c) 2000 - 2017                       |
 |                                                 |
 |     Distributed under the terms of an           |
 |     Agreement between the United Kingdom        |
 |     Car-Parrinello (UKCP) Consortium,           |
 |     Daresbury Laboratory and Accelrys, Inc.     |
 |                                                 |
 | Please cite                                     |
 |                                                 |
 |     "First principles methods using CASTEP"     |
 |                                                 |
 |         Zeitschrift fuer Kristallographie       |
 |           220(5-6) pp. 567-570 (2005)           |
 |                                                 |
 | S. J. Clark, M. D. Segall, C. J. Pickard,       |
 | P. J. Hasnip, M. J. Probert, K. Refson,         |
 | M. C. Payne                                     |
 |                                                 |
 |       in all publications arising from          |
 |              your use of CASTEP                 |
 |                                                 |
 +-------------------------------------------------+
 
 
 Compiled for linux_x86_64_ifort17 on Fri, 08 Dec 2017 17:04:03 +0000
 from code version 
 056e886bd5a1+ Castep172_branch Mon, 15 May 2017 14:45:35 +0100
 Compiler: Intel Fortran 17.0.4.196; Optimisation: fast
 MATHLIBS: Intel MKL(2017.0.3) (LAPACK version 3.7.0)
 FFT Lib : mkl
 Fundamental constants values: CODATA 2010
 
 Run started: Wed, 30 Sep 2020 16:36:35 +0100
 
 Pseudo atomic calculation performed for O 2s2 2p4
 
 Converged in 13 iterations to a total energy of -430.9846 eV
 
 
 Pseudo atomic calculation performed for Al 3s2 3p1
 
 Converged in 14 iterations to a total energy of -53.3906 eV
 
 Calculation parallelised over 1792 processes.
 Data is distributed by G-vector(896-way) and k-point(2-way)

 ************************************ Title ************************************
 3x3 sapphire surface benchmark (v1.1)

 ***************************** General Parameters ******************************
  
 output verbosity                               : normal  (1)
 write checkpoint data to                       : al3x3.check
 type of calculation                            : single point energy
 stress calculation                             : off
 density difference calculation                 : off
 electron localisation func (ELF) calculation   : off
 Hirshfeld analysis                             : off
 unlimited duration calculation
 timing information                             : on
 memory usage estimate                          : on
 write final potential to formatted file        : off
 write final density to formatted file          : off
 write BibTeX reference list                    : on
 write OTFG pseudopotential files               : on
 write electrostatic potential file             : on
 write bands file                               : on
 checkpoint writing                             : both castep_bin and check files
  
 output         length unit                     : A
 output           mass unit                     : amu
 output           time unit                     : ps
 output         charge unit                     : e
 output           spin unit                     : hbar/2
 output         energy unit                     : eV
 output          force unit                     : eV/A
 output       velocity unit                     : A/ps
 output       pressure unit                     : GPa
 output     inv_length unit                     : 1/A
 output      frequency unit                     : cm-1
 output force constant unit                     : eV/A**2
 output         volume unit                     : A**3
 output   IR intensity unit                     : (D/A)**2/amu
 output         dipole unit                     : D
 output         efield unit                     : eV/A/e
 output        entropy unit                     : J/mol/K
  
 wavefunctions paging                           : none
 random number generator seed                   :          1
 data distribution                              : optimal for this architecture
 optimization strategy                          : maximize speed(+++)

 *********************** Exchange-Correlation Parameters ***********************
  
 using functional                               : Perdew Wang (1991)
 relativistic treatment                         : Koelling-Harmon
 DFT+D: Semi-empirical dispersion correction    : off

 ************************* Pseudopotential Parameters **************************
  
 pseudopotential representation                 : reciprocal space
 <beta|phi> representation                      : reciprocal space
 spin-orbit coupling                            : off

 **************************** Basis Set Parameters *****************************
  
 plane wave basis set cut-off                   :   400.0000   eV
 size of standard grid                          :     1.7500
 size of   fine   gmax                          :    17.9311   1/A
 finite basis set correction                    : none

 **************************** Electronic Parameters ****************************
  
 number of  electrons                           :  1296.    
 net charge of system                           :  0.000    
 treating system as non-spin-polarized
 number of bands                                :        768

 ********************* Electronic Minimization Parameters **********************
  
 Method: Treating system as metallic with density mixing treatment of electrons,
         and number of  SD  steps               :          1
         and number of  CG  steps               :          4
  
 total energy / atom convergence tol.           : 0.1500E-01   eV
 eigen-energy convergence tolerance             : 0.1000E-05   eV
 max force / atom convergence tol.              : ignored
 convergence tolerance window                   :          3   cycles
 max. number of SCF cycles                      :         40
 smearing scheme                                : Gaussian
 smearing width                                 : 0.1000       eV
 Fermi energy convergence tolerance             : 0.2721E-13   eV
 periodic dipole correction                     : NONE

 ************************** Density Mixing Parameters **************************
  
 density-mixing scheme                          : Pulay
 max. length of mixing history                  :         20
 charge density mixing amplitude                : 0.8000    
 cut-off energy for mixing                      :  400.0       eV

 *******************************************************************************
  
 
                           -------------------------------
                                      Unit Cell
                           -------------------------------
        Real Lattice(A)                      Reciprocal Lattice(1/A)
  12.3642447  -7.1385000   0.0000000        0.5081738   0.0000000   0.0000000
   0.0000000  14.2770000   0.0000000        0.2540869   0.4400914   0.0000000
   0.0000000   0.0000000  27.5000000        0.0000000   0.0000000   0.2284795
 
                       Lattice parameters(A)       Cell Angles
                    a =   14.277000          alpha =   90.000000
                    b =   14.277000          beta  =   90.000000
                    c =   27.500000          gamma =  120.000000
 
                       Current cell volume = 4854.418839       A**3
                                   density =    1.134206   AMU/A**3
                                           =    1.883393     g/cm^3
 
                           -------------------------------
                                     Cell Contents
                           -------------------------------
                         Total number of ions in cell =  270
                      Total number of species in cell =    2
                        Max number of any one species =  162
 
            xxxxxxxxxxxxxxxxxxxxxxxxxxxxxxxxxxxxxxxxxxxxxxxxxxxxxxxxxxxx
            x  Element    Atom        Fractional coordinates of atoms  x
            x            Number           u          v          w      x
            x----------------------------------------------------------x
            x  O            1         0.102000   0.000000   0.645700   x 
            x  O            2         0.000000   0.102000   0.645700   x 
            x  O            3         0.231333   0.231333   0.645700   x 
            x  O            4         0.009111   0.222222   0.724433   x 
            x  O            5         0.111111   0.120222   0.724433   x 
            x  O            6         0.213111   0.324222   0.724433   x 
            x  O            7         0.120222   0.111111   0.566967   x 
            x  O            8         0.222222   0.009111   0.566967   x 
            x  O            9         0.324222   0.213111   0.566967   x 
            x  O           10         0.324222   0.111111   0.803167   x 
            x  O           11         0.222222   0.213111   0.803167   x 
            x  O           12         0.120222   0.009111   0.803167   x 
            x  O           13         0.213111   0.222222   0.960633   x 
            x  O           14         0.111111   0.324222   0.960633   x 
            x  O           15         0.009111   0.120222   0.960633   x 
            x  O           16         0.231333   0.000000   0.881900   x 
            x  O           17         0.000000   0.231333   0.881900   x 
            x  O           18         0.102000   0.102000   0.881900   x 
            x  O           19         0.102000   0.333333   0.645700   x 
            x  O           20         0.000000   0.435333   0.645700   x 
            x  O           21         0.231333   0.564667   0.645700   x 
            x  O           22         0.009111   0.555556   0.724433   x 
            x  O           23         0.111111   0.453556   0.724433   x 
            x  O           24         0.213111   0.657556   0.724433   x 
            x  O           25         0.120222   0.444444   0.566967   x 
            x  O           26         0.222222   0.342444   0.566967   x 
            x  O           27         0.324222   0.546444   0.566967   x 
            x  O           28         0.324222   0.444444   0.803167   x 
            x  O           29         0.222222   0.546444   0.803167   x 
            x  O           30         0.120222   0.342444   0.803167   x 
            x  O           31         0.213111   0.555556   0.960633   x 
            x  O           32         0.111111   0.657556   0.960633   x 
            x  O           33         0.009111   0.453556   0.960633   x 
            x  O           34         0.231333   0.333333   0.881900   x 
            x  O           35         0.000000   0.564667   0.881900   x 
            x  O           36         0.102000   0.435333   0.881900   x 
            x  O           37         0.102000   0.666667   0.645700   x 
            x  O           38         0.000000   0.768667   0.645700   x 
            x  O           39         0.231333   0.898000   0.645700   x 
            x  O           40         0.009111   0.888889   0.724433   x 
            x  O           41         0.111111   0.786889   0.724433   x 
            x  O           42         0.213111   0.990889   0.724433   x 
            x  O           43         0.120222   0.777778   0.566967   x 
            x  O           44         0.222222   0.675778   0.566967   x 
            x  O           45         0.324222   0.879778   0.566967   x 
            x  O           46         0.324222   0.777778   0.803167   x 
            x  O           47         0.222222   0.879778   0.803167   x 
            x  O           48         0.120222   0.675778   0.803167   x 
            x  O           49         0.213111   0.888889   0.960633   x 
            x  O           50         0.111111   0.990889   0.960633   x 
            x  O           51         0.009111   0.786889   0.960633   x 
            x  O           52         0.231333   0.666667   0.881900   x 
            x  O           53         0.000000   0.898000   0.881900   x 
            x  O           54         0.102000   0.768667   0.881900   x 
            x  O           55         0.435333   0.000000   0.645700   x 
            x  O           56         0.333333   0.102000   0.645700   x 
            x  O           57         0.564667   0.231333   0.645700   x 
            x  O           58         0.342444   0.222222   0.724433   x 
            x  O           59         0.444444   0.120222   0.724433   x 
            x  O           60         0.546444   0.324222   0.724433   x 
            x  O           61         0.453556   0.111111   0.566967   x 
            x  O           62         0.555556   0.009111   0.566967   x 
            x  O           63         0.657556   0.213111   0.566967   x 
            x  O           64         0.657556   0.111111   0.803167   x 
            x  O           65         0.555556   0.213111   0.803167   x 
            x  O           66         0.453556   0.009111   0.803167   x 
            x  O           67         0.546444   0.222222   0.960633   x 
            x  O           68         0.444444   0.324222   0.960633   x 
            x  O           69         0.342444   0.120222   0.960633   x 
            x  O           70         0.564667   0.000000   0.881900   x 
            x  O           71         0.333333   0.231333   0.881900   x 
            x  O           72         0.435333   0.102000   0.881900   x 
            x  O           73         0.435333   0.333333   0.645700   x 
            x  O           74         0.333333   0.435333   0.645700   x 
            x  O           75         0.564667   0.564667   0.645700   x 
            x  O           76         0.342444   0.555556   0.724433   x 
            x  O           77         0.444444   0.453556   0.724433   x 
            x  O           78         0.546444   0.657556   0.724433   x 
            x  O           79         0.453556   0.444444   0.566967   x 
            x  O           80         0.555556   0.342444   0.566967   x 
            x  O           81         0.657556   0.546444   0.566967   x 
            x  O           82         0.657556   0.444444   0.803167   x 
            x  O           83         0.555556   0.546444   0.803167   x 
            x  O           84         0.453556   0.342444   0.803167   x 
            x  O           85         0.546444   0.555556   0.960633   x 
            x  O           86         0.444444   0.657556   0.960633   x 
            x  O           87         0.342444   0.453556   0.960633   x 
            x  O           88         0.564667   0.333333   0.881900   x 
            x  O           89         0.333333   0.564667   0.881900   x 
            x  O           90         0.435333   0.435333   0.881900   x 
            x  O           91         0.435333   0.666667   0.645700   x 
            x  O           92         0.333333   0.768667   0.645700   x 
            x  O           93         0.564667   0.898000   0.645700   x 
            x  O           94         0.342444   0.888889   0.724433   x 
            x  O           95         0.444444   0.786889   0.724433   x 
            x  O           96         0.546444   0.990889   0.724433   x 
            x  O           97         0.453556   0.777778   0.566967   x 
            x  O           98         0.555556   0.675778   0.566967   x 
            x  O           99         0.657556   0.879778   0.566967   x 
            x  O          100         0.657556   0.777778   0.803167   x 
            x  O          101         0.555556   0.879778   0.803167   x 
            x  O          102         0.453556   0.675778   0.803167   x 
            x  O          103         0.546444   0.888889   0.960633   x 
            x  O          104         0.444444   0.990889   0.960633   x 
            x  O          105         0.342444   0.786889   0.960633   x 
            x  O          106         0.564667   0.666667   0.881900   x 
            x  O          107         0.333333   0.898000   0.881900   x 
            x  O          108         0.435333   0.768667   0.881900   x 
            x  O          109         0.768667   0.000000   0.645700   x 
            x  O          110         0.666667   0.102000   0.645700   x 
            x  O          111         0.898000   0.231333   0.645700   x 
            x  O          112         0.675778   0.222222   0.724433   x 
            x  O          113         0.777778   0.120222   0.724433   x 
            x  O          114         0.879778   0.324222   0.724433   x 
            x  O          115         0.786889   0.111111   0.566967   x 
            x  O          116         0.888889   0.009111   0.566967   x 
            x  O          117         0.990889   0.213111   0.566967   x 
            x  O          118         0.990889   0.111111   0.803167   x 
            x  O          119         0.888889   0.213111   0.803167   x 
            x  O          120         0.786889   0.009111   0.803167   x 
            x  O          121         0.879778   0.222222   0.960633   x 
            x  O          122         0.777778   0.324222   0.960633   x 
            x  O          123         0.675778   0.120222   0.960633   x 
            x  O          124         0.898000   0.000000   0.881900   x 
            x  O          125         0.666667   0.231333   0.881900   x 
            x  O          126         0.768667   0.102000   0.881900   x 
            x  O          127         0.768667   0.333333   0.645700   x 
            x  O          128         0.666667   0.435333   0.645700   x 
            x  O          129         0.898000   0.564667   0.645700   x 
            x  O          130         0.675778   0.555556   0.724433   x 
            x  O          131         0.777778   0.453556   0.724433   x 
            x  O          132         0.879778   0.657556   0.724433   x 
            x  O          133         0.786889   0.444444   0.566967   x 
            x  O          134         0.888889   0.342444   0.566967   x 
            x  O          135         0.990889   0.546444   0.566967   x 
            x  O          136         0.990889   0.444444   0.803167   x 
            x  O          137         0.888889   0.546444   0.803167   x 
            x  O          138         0.786889   0.342444   0.803167   x 
            x  O          139         0.879778   0.555556   0.960633   x 
            x  O          140         0.777778   0.657556   0.960633   x 
            x  O          141         0.675778   0.453556   0.960633   x 
            x  O          142         0.898000   0.333333   0.881900   x 
            x  O          143         0.666667   0.564667   0.881900   x 
            x  O          144         0.768667   0.435333   0.881900   x 
            x  O          145         0.768667   0.666667   0.645700   x 
            x  O          146         0.666667   0.768667   0.645700   x 
            x  O          147         0.898000   0.898000   0.645700   x 
            x  O          148         0.675778   0.888889   0.724433   x 
            x  O          149         0.777778   0.786889   0.724433   x 
            x  O          150         0.879778   0.990889   0.724433   x 
            x  O          151         0.786889   0.777778   0.566967   x 
            x  O          152         0.888889   0.675778   0.566967   x 
            x  O          153         0.990889   0.879778   0.566967   x 
            x  O          154         0.990889   0.777778   0.803167   x 
            x  O          155         0.888889   0.879778   0.803167   x 
            x  O          156         0.786889   0.675778   0.803167   x 
            x  O          157         0.879778   0.888889   0.960633   x 
            x  O          158         0.777778   0.990889   0.960633   x 
            x  O          159         0.675778   0.786889   0.960633   x 
            x  O          160         0.898000   0.666667   0.881900   x 
            x  O          161         0.666667   0.898000   0.881900   x 
            x  O          162         0.768667   0.768667   0.881900   x 
            x  Al           1         0.000000   0.000000   0.693885   x 
            x  Al           2         0.000000   0.000000   0.597515   x 
            x  Al           3         0.222222   0.111111   0.615151   x 
            x  Al           4         0.111111   0.222222   0.676249   x 
            x  Al           5         0.222222   0.111111   0.754982   x 
            x  Al           6         0.111111   0.222222   0.772618   x 
            x  Al           7         0.222222   0.111111   0.991182   x 
            x  Al           8         0.111111   0.222222   0.536418   x 
            x  Al           9         0.000000   0.000000   0.833715   x 
            x  Al          10         0.222222   0.111111   0.851351   x 
            x  Al          11         0.000000   0.000000   0.930085   x 
            x  Al          12         0.111111   0.222222   0.912449   x 
            x  Al          13         0.000000   0.333333   0.693885   x 
            x  Al          14         0.000000   0.333333   0.597515   x 
            x  Al          15         0.222222   0.444444   0.615151   x 
            x  Al          16         0.111111   0.555556   0.676249   x 
            x  Al          17         0.222222   0.444444   0.754982   x 
            x  Al          18         0.111111   0.555556   0.772618   x 
            x  Al          19         0.222222   0.444444   0.991182   x 
            x  Al          20         0.111111   0.555556   0.536418   x 
            x  Al          21         0.000000   0.333333   0.833715   x 
            x  Al          22         0.222222   0.444444   0.851351   x 
            x  Al          23         0.000000   0.333333   0.930085   x 
            x  Al          24         0.111111   0.555556   0.912449   x 
            x  Al          25         0.000000   0.666667   0.693885   x 
            x  Al          26         0.000000   0.666667   0.597515   x 
            x  Al          27         0.222222   0.777778   0.615151   x 
            x  Al          28         0.111111   0.888889   0.676249   x 
            x  Al          29         0.222222   0.777778   0.754982   x 
            x  Al          30         0.111111   0.888889   0.772618   x 
            x  Al          31         0.222222   0.777778   0.991182   x 
            x  Al          32         0.111111   0.888889   0.536418   x 
            x  Al          33         0.000000   0.666667   0.833715   x 
            x  Al          34         0.222222   0.777778   0.851351   x 
            x  Al          35         0.000000   0.666667   0.930085   x 
            x  Al          36         0.111111   0.888889   0.912449   x 
            x  Al          37         0.333333   0.000000   0.693885   x 
            x  Al          38         0.333333   0.000000   0.597515   x 
            x  Al          39         0.555556   0.111111   0.615151   x 
            x  Al          40         0.444444   0.222222   0.676249   x 
            x  Al          41         0.555556   0.111111   0.754982   x 
            x  Al          42         0.444444   0.222222   0.772618   x 
            x  Al          43         0.555556   0.111111   0.991182   x 
            x  Al          44         0.444444   0.222222   0.536418   x 
            x  Al          45         0.333333   0.000000   0.833715   x 
            x  Al          46         0.555556   0.111111   0.851351   x 
            x  Al          47         0.333333   0.000000   0.930085   x 
            x  Al          48         0.444444   0.222222   0.912449   x 
            x  Al          49         0.333333   0.333333   0.693885   x 
            x  Al          50         0.333333   0.333333   0.597515   x 
            x  Al          51         0.555556   0.444444   0.615151   x 
            x  Al          52         0.444444   0.555556   0.676249   x 
            x  Al          53         0.555556   0.444444   0.754982   x 
            x  Al          54         0.444444   0.555556   0.772618   x 
            x  Al          55         0.555556   0.444444   0.991182   x 
            x  Al          56         0.444444   0.555556   0.536418   x 
            x  Al          57         0.333333   0.333333   0.833715   x 
            x  Al          58         0.555556   0.444444   0.851351   x 
            x  Al          59         0.333333   0.333333   0.930085   x 
            x  Al          60         0.444444   0.555556   0.912449   x 
            x  Al          61         0.333333   0.666667   0.693885   x 
            x  Al          62         0.333333   0.666667   0.597515   x 
            x  Al          63         0.555556   0.777778   0.615151   x 
            x  Al          64         0.444444   0.888889   0.676249   x 
            x  Al          65         0.555556   0.777778   0.754982   x 
            x  Al          66         0.444444   0.888889   0.772618   x 
            x  Al          67         0.555556   0.777778   0.991182   x 
            x  Al          68         0.444444   0.888889   0.536418   x 
            x  Al          69         0.333333   0.666667   0.833715   x 
            x  Al          70         0.555556   0.777778   0.851351   x 
            x  Al          71         0.333333   0.666667   0.930085   x 
            x  Al          72         0.444444   0.888889   0.912449   x 
            x  Al          73         0.666667   0.000000   0.693885   x 
            x  Al          74         0.666667   0.000000   0.597515   x 
            x  Al          75         0.888889   0.111111   0.615151   x 
            x  Al          76         0.777778   0.222222   0.676249   x 
            x  Al          77         0.888889   0.111111   0.754982   x 
            x  Al          78         0.777778   0.222222   0.772618   x 
            x  Al          79         0.888889   0.111111   0.991182   x 
            x  Al          80         0.777778   0.222222   0.536418   x 
            x  Al          81         0.666667   0.000000   0.833715   x 
            x  Al          82         0.888889   0.111111   0.851351   x 
            x  Al          83         0.666667   0.000000   0.930085   x 
            x  Al          84         0.777778   0.222222   0.912449   x 
            x  Al          85         0.666667   0.333333   0.693885   x 
            x  Al          86         0.666667   0.333333   0.597515   x 
            x  Al          87         0.888889   0.444444   0.615151   x 
            x  Al          88         0.777778   0.555556   0.676249   x 
            x  Al          89         0.888889   0.444444   0.754982   x 
            x  Al          90         0.777778   0.555556   0.772618   x 
            x  Al          91         0.888889   0.444444   0.991182   x 
            x  Al          92         0.777778   0.555556   0.536418   x 
            x  Al          93         0.666667   0.333333   0.833715   x 
            x  Al          94         0.888889   0.444444   0.851351   x 
            x  Al          95         0.666667   0.333333   0.930085   x 
            x  Al          96         0.777778   0.555556   0.912449   x 
            x  Al          97         0.666667   0.666667   0.693885   x 
            x  Al          98         0.666667   0.666667   0.597515   x 
            x  Al          99         0.888889   0.777778   0.615151   x 
            x  Al         100         0.777778   0.888889   0.676249   x 
            x  Al         101         0.888889   0.777778   0.754982   x 
            x  Al         102         0.777778   0.888889   0.772618   x 
            x  Al         103         0.888889   0.777778   0.991182   x 
            x  Al         104         0.777778   0.888889   0.536418   x 
            x  Al         105         0.666667   0.666667   0.833715   x 
            x  Al         106         0.888889   0.777778   0.851351   x 
            x  Al         107         0.666667   0.666667   0.930085   x 
            x  Al         108         0.777778   0.888889   0.912449   x 
            xxxxxxxxxxxxxxxxxxxxxxxxxxxxxxxxxxxxxxxxxxxxxxxxxxxxxxxxxxxx
 
 
                         No user defined ionic velocities
 
                           -------------------------------
                                   Details of Species
                           -------------------------------
 
                               Mass of species in AMU
                                    O   15.9994000
                                    Al   26.9815400
 
                          Electric Quadrupole Moment (Barn)
                                    O   -0.0255800 Isotope 17
                                    Al    0.1466000 Isotope 27
 
                          Files used for pseudopotentials:
                                    O O_00.usp
                                    Al Al_00.usp
 
                           -------------------------------
                              k-Points For BZ Sampling
                           -------------------------------
                       MP grid size for SCF calculation is  2  2  1
                            with an offset of   0.000  0.000  0.000
                       Number of kpoints used =             2
 
                           -------------------------------
                               Symmetry and Constraints
                           -------------------------------
 
                      Cell is a supercell containing 9 primitive cells
                      Maximum deviation from symmetry =  0.00000         ANG
 
                      Number of symmetry operations   =           1
                      Number of ionic constraints     =           3
                      Point group of crystal =     1: C1, 1, 1
                      Space group of crystal =   147: P-3, -P 3
 
             Set iprint > 1 for details on symmetry rotations/translations
 
                         Centre of mass is constrained
             Set iprint > 1 for details of linear ionic constraints
 
                         Number of cell constraints= 0
                         Cell constraints are:  1 2 3 4 5 6
 
                         External pressure/stress (GPa)
                          0.00000   0.00000   0.00000
                                    0.00000   0.00000
                                              0.00000
  
+---------------- MEMORY AND SCRATCH DISK ESTIMATES PER PROCESS --------------+
|                                                     Memory          Disk    |
| Baseline code, static data and system overhead     7254.0 MB         0.0 MB |
| BLAS internal memory storage                          0.0 MB         0.0 MB |
| Model and support data                               27.3 MB         0.0 MB |
| Electronic energy minimisation requirements          14.3 MB         0.0 MB |
| Force calculation requirements                        0.3 MB         0.0 MB |
|                                               ----------------------------- |
| Approx. total storage required per process         7295.6 MB         0.0 MB |
|                                                                             |
| Requirements will fluctuate during execution and may exceed these estimates |
+-----------------------------------------------------------------------------+
Calculating total energy with cut-off of  400.000 eV.
------------------------------------------------------------------------ <-- SCF
SCF loop      Energy           Fermi           Energy gain       Timer   <-- SCF
                               energy          per atom          (sec)   <-- SCF
------------------------------------------------------------------------ <-- SCF
Initial  -5.94024640E+004  0.00000000E+000                         2.14  <-- SCF
      1  -7.23886217E+004  4.09367592E+000   4.80968802E+001      26.85  <-- SCF
      2  -7.78233046E+004  1.97306112E+000   2.01284553E+001      43.32  <-- SCF
      3  -7.79864192E+004  1.80496787E+000   6.04127989E-001      59.81  <-- SCF
      4  -7.78412124E+004  1.95865760E+000  -5.37802811E-001      81.57  <-- SCF
      5  -7.77211103E+004  1.34875134E+000  -4.44822707E-001     102.92  <-- SCF
      6  -7.77152144E+004  1.12197308E+000  -2.18365313E-002     125.49  <-- SCF
      7  -7.77129449E+004  1.05280787E+000  -8.40565312E-003     146.56  <-- SCF
      8  -7.77104460E+004  1.02760150E+000  -9.25534723E-003     168.02  <-- SCF
      9  -7.77084267E+004  9.96453764E-001  -7.47875928E-003     189.25  <-- SCF
     10  -7.77059906E+004  1.11072793E+000  -9.02256465E-003     210.91  <-- SCF
     11  -7.77052132E+004  1.16156383E+000  -2.87924019E-003     231.30  <-- SCF
------------------------------------------------------------------------ <-- SCF
 
Final energy, E             =  -77705.21319892     eV
Final free energy (E-TS)    =  -77705.21319893     eV
(energies not corrected for finite basis set)
 
NB est. 0K energy (E-0.5TS)      =  -77705.21319892     eV
 

Writing analysis data to al3x3.castep_bin

Writing model to al3x3.check
 
 ******************* Unconstrained Forces *******************
 *                                                          *
 *               Cartesian components (eV/A)                *
 * -------------------------------------------------------- *
 *                         x            y            z      *
 *                                                          *
 * O               1      0.16776      0.01419      0.81555 *
 * O               2     -0.09928      0.13124      0.81363 *
 * O               3     -0.05870     -0.15082      0.81231 *
 * O               4     -0.10351      0.02361      0.36593 *
 * O               5      0.01872     -0.10019      0.37182 *
 * O               6      0.08001      0.07723      0.36813 *
 * O               7     -1.67258      1.78797     -1.03789 *
 * O               8     -0.68534     -2.30484     -1.02535 *
 * O               9      2.30818      0.54894     -1.02897 *
 * O              10      0.08499     -0.01922     -0.37529 *
 * O              11     -0.02294      0.08238     -0.37970 *
 * O              12     -0.05931     -0.06219     -0.37702 *
 * O              13      1.66616     -1.79564      0.96784 *
 * O              14      0.70654      2.32186      0.97756 *
 * O              15     -2.35784     -0.54762      0.98137 *
 * O              16     -0.17541     -0.00470     -0.75857 *
 * O              17      0.09501     -0.14236     -0.76051 *
 * O              18      0.07871      0.14990     -0.76384 *
 * O              19      0.16722      0.01872      0.81225 *
 * O              20     -0.10185      0.13299      0.81099 *
 * O              21     -0.06571     -0.15018      0.81265 *
 * O              22     -0.10701      0.02658      0.36699 *
 * O              23      0.02248     -0.10233      0.37453 *
 * O              24      0.07814      0.07836      0.36597 *
 * O              25     -1.66754      1.77458     -1.03316 *
 * O              26     -0.68196     -2.28554     -1.02409 *
 * O              27      2.35983      0.54627     -1.04710 *
 * O              28      0.08445     -0.02098     -0.37911 *
 * O              29     -0.02217      0.08485     -0.37498 *
 * O              30     -0.06161     -0.06595     -0.37834 *
 * O              31      1.63072     -1.75520      0.96814 *
 * O              32      0.71268      2.30847      0.97322 *
 * O              33     -2.32643     -0.54525      0.96675 *
 * O              34     -0.17548     -0.00740     -0.76690 *
 * O              35      0.09577     -0.14777     -0.75482 *
 * O              36      0.07745      0.15807     -0.75782 *
 * O              37      0.17216      0.01835      0.80955 *
 * O              38     -0.09739      0.12984      0.81645 *
 * O              39     -0.06297     -0.15194      0.81328 *
 * O              40     -0.10202      0.02713      0.36953 *
 * O              41      0.02485     -0.10646      0.36882 *
 * O              42      0.08186      0.07451      0.36681 *
 * O              43     -1.63875      1.73596     -1.01959 *
 * O              44     -0.68629     -2.27342     -1.01378 *
 * O              45      2.33892      0.55088     -1.03468 *
 * O              46      0.08336     -0.01783     -0.37337 *
 * O              47     -0.02607      0.07963     -0.37873 *
 * O              48     -0.05749     -0.06644     -0.37194 *
 * O              49      1.65318     -1.77573      0.97559 *
 * O              50      0.69624      2.28086      0.96346 *
 * O              51     -2.36219     -0.53322      0.97982 *
 * O              52     -0.17429     -0.01291     -0.76177 *
 * O              53      0.10238     -0.14306     -0.75424 *
 * O              54      0.07985      0.15307     -0.76324 *
 * O              55      0.17049      0.02031      0.81376 *
 * O              56     -0.10150      0.13150      0.80942 *
 * O              57     -0.06110     -0.15408      0.81859 *
 * O              58     -0.10288      0.02979      0.36895 *
 * O              59      0.02754     -0.10439      0.37161 *
 * O              60      0.08067      0.07151      0.36854 *
 * O              61     -1.66056      1.76744     -1.02944 *
 * O              62     -0.68958     -2.30208     -1.04067 *
 * O              63      2.34734      0.54932     -1.03950 *
 * O              64      0.08652     -0.02063     -0.37766 *
 * O              65     -0.02193      0.08552     -0.37445 *
 * O              66     -0.05724     -0.06485     -0.37530 *
 * O              67      1.64933     -1.77707      0.97529 *
 * O              68      0.70156      2.29146      0.97001 *
 * O              69     -2.34218     -0.54929      0.97108 *
 * O              70     -0.17847     -0.01162     -0.75464 *
 * O              71      0.10326     -0.14122     -0.75572 *
 * O              72      0.07739      0.15019     -0.75627 *
 * O              73      0.16648      0.01510      0.81570 *
 * O              74     -0.10500      0.12763      0.81347 *
 * O              75     -0.06393     -0.15184      0.81472 *
 * O              76     -0.10040      0.02821      0.37241 *
 * O              77      0.02044     -0.10297      0.37230 *
 * O              78      0.08365      0.07289      0.37092 *
 * O              79     -1.66649      1.77349     -1.03829 *
 * O              80     -0.69157     -2.31013     -1.03244 *
 * O              81      2.33016      0.54952     -1.04814 *
 * O              82      0.08672     -0.02025     -0.37620 *
 * O              83     -0.02132      0.08745     -0.37853 *
 * O              84     -0.05902     -0.06135     -0.37614 *
 * O              85      1.64887     -1.76595      0.97162 *
 * O              86      0.72367      2.34068      0.98237 *
 * O              87     -2.36231     -0.55079      0.97948 *
 * O              88     -0.17969     -0.00920     -0.76391 *
 * O              89      0.09534     -0.14746     -0.76651 *
 * O              90      0.08468      0.15020     -0.75676 *
 * O              91      0.16416      0.01708      0.81441 *
 * O              92     -0.10107      0.13148      0.80877 *
 * O              93     -0.05808     -0.15413      0.80847 *
 * O              94     -0.10138      0.02212      0.36816 *
 * O              95      0.02538     -0.10268      0.36991 *
 * O              96      0.08013      0.07558      0.36634 *
 * O              97     -1.65988      1.77499     -1.03314 *
 * O              98     -0.68120     -2.28177     -1.02101 *
 * O              99      2.31637      0.54390     -1.03033 *
 * O             100      0.08681     -0.01404     -0.37319 *
 * O             101     -0.01844      0.08321     -0.37582 *
 * O             102     -0.05563     -0.06108     -0.37894 *
 * O             103      1.63984     -1.74626      0.96959 *
 * O             104      0.69807      2.28977      0.97417 *
 * O             105     -2.35667     -0.54330      0.98447 *
 * O             106     -0.17122     -0.01388     -0.76482 *
 * O             107      0.09688     -0.14614     -0.76101 *
 * O             108      0.07864      0.15520     -0.76164 *
 * O             109      0.16673      0.01529      0.82154 *
 * O             110     -0.10151      0.13190      0.81473 *
 * O             111     -0.05835     -0.14902      0.81222 *
 * O             112     -0.10225      0.02562      0.36748 *
 * O             113      0.02295     -0.10287      0.37049 *
 * O             114      0.08354      0.07452      0.36623 *
 * O             115     -1.66080      1.77705     -1.03216 *
 * O             116     -0.68623     -2.30262     -1.03001 *
 * O             117      2.31884      0.55289     -1.02749 *
 * O             118      0.08851     -0.02063     -0.37334 *
 * O             119     -0.02041      0.08076     -0.38255 *
 * O             120     -0.06146     -0.06451     -0.37289 *
 * O             121      1.64939     -1.76878      0.97114 *
 * O             122      0.71041      2.30208      0.97087 *
 * O             123     -2.37716     -0.54403      0.97807 *
 * O             124     -0.17505     -0.00916     -0.76738 *
 * O             125      0.09611     -0.13872     -0.76162 *
 * O             126      0.07500      0.14770     -0.76883 *
 * O             127      0.16346      0.02242      0.80640 *
 * O             128     -0.10092      0.13257      0.81124 *
 * O             129     -0.06097     -0.15338      0.81241 *
 * O             130     -0.10452      0.02426      0.36453 *
 * O             131      0.02251     -0.09856      0.36946 *
 * O             132      0.08378      0.07562      0.36683 *
 * O             133     -1.64334      1.74557     -1.03333 *
 * O             134     -0.69139     -2.29208     -1.02881 *
 * O             135      2.34404      0.54728     -1.03111 *
 * O             136      0.08939     -0.01715     -0.37276 *
 * O             137     -0.02152      0.08176     -0.37885 *
 * O             138     -0.05748     -0.06550     -0.37656 *
 * O             139      1.65579     -1.78144      0.96610 *
 * O             140      0.70259      2.30062      0.97988 *
 * O             141     -2.37674     -0.54580      0.98248 *
 * O             142     -0.17162     -0.01161     -0.75908 *
 * O             143      0.09225     -0.14371     -0.75626 *
 * O             144      0.07458      0.15180     -0.75962 *
 * O             145      0.16327      0.02065      0.81887 *
 * O             146     -0.10306      0.13488      0.80851 *
 * O             147     -0.05671     -0.15368      0.80949 *
 * O             148     -0.10158      0.02733      0.37112 *
 * O             149      0.02180     -0.10444      0.37266 *
 * O             150      0.07680      0.07538      0.36331 *
 * O             151     -1.65535      1.76780     -1.03155 *
 * O             152     -0.70850     -2.34223     -1.03766 *
 * O             153      2.32148      0.55772     -1.02961 *
 * O             154      0.08757     -0.01474     -0.37298 *
 * O             155     -0.02251      0.08672     -0.37826 *
 * O             156     -0.06144     -0.06889     -0.37262 *
 * O             157      1.65826     -1.78599      0.97751 *
 * O             158      0.70296      2.29982      0.96686 *
 * O             159     -2.34469     -0.54084      0.97399 *
 * O             160     -0.17338     -0.00906     -0.76224 *
 * O             161      0.09294     -0.14469     -0.74681 *
 * O             162      0.07554      0.15245     -0.75921 *
 * Al              1      0.00113     -0.00019     -0.04566 *
 * Al              2     -0.02187     -0.01698     -0.86873 *
 * Al              3      0.01891     -0.00380     -1.98014 *
 * Al              4      0.00075     -0.00020     -0.25285 *
 * Al              5      0.00035     -0.00052     -0.08042 *
 * Al              6      0.00112     -0.00048      0.08202 *
 * Al              7     -0.00864     -0.03293     -7.29639 *
 * Al              8      0.00210      0.04904      7.29761 *
 * Al              9      0.00082     -0.00057      0.05080 *
 * Al             10      0.00090      0.00002      0.27332 *
 * Al             11      0.02251     -0.00515      0.87616 *
 * Al             12     -0.00459      0.00248      1.98073 *
 * Al             13      0.00088     -0.00045     -0.04549 *
 * Al             14     -0.01555     -0.01233     -0.87418 *
 * Al             15      0.00290     -0.01406     -1.97756 *
 * Al             16      0.00105     -0.00045     -0.25313 *
 * Al             17      0.00031     -0.00063     -0.08068 *
 * Al             18      0.00088     -0.00032      0.08198 *
 * Al             19     -0.00037      0.01283     -7.29797 *
 * Al             20      0.02150      0.02718      7.29800 *
 * Al             21      0.00088     -0.00018      0.05142 *
 * Al             22      0.00094     -0.00069      0.27367 *
 * Al             23     -0.00124      0.00912      0.87621 *
 * Al             24     -0.00026     -0.00473      1.99374 *
 * Al             25      0.00067     -0.00058     -0.04554 *
 * Al             26      0.01695     -0.00425     -0.86589 *
 * Al             27     -0.00166     -0.00844     -1.98971 *
 * Al             28      0.00114     -0.00019     -0.25254 *
 * Al             29      0.00048     -0.00029     -0.08078 *
 * Al             30      0.00137     -0.00070      0.08227 *
 * Al             31     -0.00235     -0.00283     -7.29681 *
 * Al             32     -0.00705      0.00193      7.29859 *
 * Al             33      0.00092     -0.00046      0.05150 *
 * Al             34      0.00108     -0.00037      0.27394 *
 * Al             35      0.00400     -0.00079      0.86817 *
 * Al             36     -0.00042      0.01057      1.99079 *
 * Al             37      0.00107     -0.00052     -0.04537 *
 * Al             38     -0.00541      0.00036     -0.87026 *
 * Al             39      0.00339     -0.00334     -1.97928 *
 * Al             40      0.00112     -0.00034     -0.25279 *
 * Al             41      0.00048     -0.00079     -0.08069 *
 * Al             42      0.00114     -0.00024      0.08196 *
 * Al             43     -0.02040     -0.01138     -7.29632 *
 * Al             44     -0.02196      0.01637      7.29816 *
 * Al             45      0.00089     -0.00079      0.05099 *
 * Al             46      0.00117     -0.00058      0.27359 *
 * Al             47      0.01363      0.00212      0.87839 *
 * Al             48     -0.00520      0.00529      1.99137 *
 * Al             49      0.00090     -0.00018     -0.04536 *
 * Al             50     -0.02114     -0.01382     -0.88144 *
 * Al             51      0.00785     -0.00192     -1.97656 *
 * Al             52      0.00112     -0.00035     -0.25346 *
 * Al             53      0.00037     -0.00060     -0.08093 *
 * Al             54      0.00141     -0.00001      0.08228 *
 * Al             55     -0.01994      0.00221     -7.29757 *
 * Al             56      0.02748      0.02040      7.29820 *
 * Al             57      0.00072     -0.00036      0.05097 *
 * Al             58      0.00120     -0.00035      0.27399 *
 * Al             59      0.01799     -0.00305      0.87091 *
 * Al             60      0.00395     -0.00876      1.98055 *
 * Al             61      0.00098     -0.00052     -0.04586 *
 * Al             62     -0.02101      0.01159     -0.86933 *
 * Al             63      0.01125     -0.00697     -1.98711 *
 * Al             64      0.00105     -0.00018     -0.25300 *
 * Al             65      0.00057     -0.00059     -0.08065 *
 * Al             66      0.00110     -0.00036      0.08180 *
 * Al             67      0.02609      0.02199     -7.29658 *
 * Al             68      0.00443      0.01658      7.29819 *
 * Al             69      0.00123     -0.00002      0.05132 *
 * Al             70      0.00041     -0.00078      0.27378 *
 * Al             71     -0.01811      0.00124      0.86725 *
 * Al             72      0.00704      0.00351      1.99383 *
 * Al             73      0.00087     -0.00055     -0.04560 *
 * Al             74     -0.01402     -0.01703     -0.87116 *
 * Al             75      0.01300     -0.00437     -1.98106 *
 * Al             76      0.00101     -0.00042     -0.25328 *
 * Al             77      0.00065     -0.00061     -0.08051 *
 * Al             78      0.00086     -0.00021      0.08197 *
 * Al             79     -0.00822     -0.00436     -7.29734 *
 * Al             80      0.00774      0.02552      7.29848 *
 * Al             81      0.00111     -0.00044      0.05128 *
 * Al             82      0.00087     -0.00065      0.27362 *
 * Al             83     -0.00193     -0.01635      0.87651 *
 * Al             84      0.00504      0.00485      1.98541 *
 * Al             85      0.00079     -0.00039     -0.04578 *
 * Al             86      0.00540      0.00134     -0.87272 *
 * Al             87     -0.00171     -0.00364     -1.98453 *
 * Al             88      0.00116     -0.00008     -0.25381 *
 * Al             89      0.00059     -0.00074     -0.08085 *
 * Al             90      0.00137      0.00006      0.08202 *
 * Al             91      0.00742     -0.01692     -7.29702 *
 * Al             92     -0.01872     -0.01582      7.29922 *
 * Al             93      0.00089     -0.00065      0.05138 *
 * Al             94      0.00114     -0.00063      0.27382 *
 * Al             95      0.01045     -0.00717      0.86967 *
 * Al             96      0.00131      0.00630      1.98373 *
 * Al             97      0.00091     -0.00058     -0.04546 *
 * Al             98     -0.01371      0.00089     -0.87650 *
 * Al             99      0.00779      0.00812     -1.97661 *
 * Al            100      0.00096      0.00018     -0.25268 *
 * Al            101      0.00036     -0.00065     -0.08024 *
 * Al            102      0.00093     -0.00012      0.08241 *
 * Al            103     -0.00894     -0.01598     -7.29701 *
 * Al            104     -0.00878      0.01933      7.29804 *
 * Al            105      0.00116     -0.00056      0.05116 *
 * Al            106      0.00106     -0.00061      0.27375 *
 * Al            107      0.00186      0.00120      0.88048 *
 * Al            108     -0.00676      0.00467      1.98875 *
 *                                                          *
 ************************************************************
 
 ******************** Constrained Forces ********************
 *                                                          *
 *               Cartesian components (eV/A)                *
 * -------------------------------------------------------- *
 *                         x            y            z      *
 *                                                          *
 * O               1      0.16776      0.01419      0.81555 *
 * O               2     -0.09928      0.13124      0.81363 *
 * O               3     -0.05870     -0.15082      0.81231 *
 * O               4     -0.10351      0.02361      0.36593 *
 * O               5      0.01872     -0.10019      0.37182 *
 * O               6      0.08001      0.07723      0.36813 *
 * O               7     -1.67258      1.78797     -1.03789 *
 * O               8     -0.68534     -2.30484     -1.02535 *
 * O               9      2.30818      0.54894     -1.02897 *
 * O              10      0.08499     -0.01922     -0.37529 *
 * O              11     -0.02294      0.08238     -0.37970 *
 * O              12     -0.05931     -0.06219     -0.37702 *
 * O              13      1.66616     -1.79564      0.96784 *
 * O              14      0.70654      2.32186      0.97756 *
 * O              15     -2.35784     -0.54762      0.98137 *
 * O              16     -0.17541     -0.00470     -0.75857 *
 * O              17      0.09501     -0.14236     -0.76051 *
 * O              18      0.07871      0.14990     -0.76384 *
 * O              19      0.16722      0.01872      0.81225 *
 * O              20     -0.10185      0.13299      0.81099 *
 * O              21     -0.06571     -0.15018      0.81265 *
 * O              22     -0.10701      0.02658      0.36699 *
 * O              23      0.02248     -0.10233      0.37453 *
 * O              24      0.07814      0.07836      0.36597 *
 * O              25     -1.66754      1.77458     -1.03316 *
 * O              26     -0.68196     -2.28554     -1.02409 *
 * O              27      2.35983      0.54627     -1.04710 *
 * O              28      0.08445     -0.02098     -0.37911 *
 * O              29     -0.02217      0.08485     -0.37498 *
 * O              30     -0.06161     -0.06595     -0.37834 *
 * O              31      1.63072     -1.75520      0.96814 *
 * O              32      0.71268      2.30847      0.97322 *
 * O              33     -2.32643     -0.54525      0.96675 *
 * O              34     -0.17548     -0.00740     -0.76690 *
 * O              35      0.09577     -0.14777     -0.75482 *
 * O              36      0.07745      0.15807     -0.75782 *
 * O              37      0.17216      0.01835      0.80955 *
 * O              38     -0.09739      0.12984      0.81645 *
 * O              39     -0.06297     -0.15194      0.81328 *
 * O              40     -0.10202      0.02713      0.36953 *
 * O              41      0.02485     -0.10646      0.36882 *
 * O              42      0.08186      0.07451      0.36681 *
 * O              43     -1.63875      1.73596     -1.01959 *
 * O              44     -0.68629     -2.27342     -1.01378 *
 * O              45      2.33892      0.55088     -1.03468 *
 * O              46      0.08336     -0.01783     -0.37337 *
 * O              47     -0.02607      0.07963     -0.37873 *
 * O              48     -0.05749     -0.06644     -0.37194 *
 * O              49      1.65318     -1.77573      0.97559 *
 * O              50      0.69624      2.28086      0.96346 *
 * O              51     -2.36219     -0.53322      0.97982 *
 * O              52     -0.17429     -0.01291     -0.76177 *
 * O              53      0.10238     -0.14306     -0.75424 *
 * O              54      0.07985      0.15307     -0.76324 *
 * O              55      0.17049      0.02031      0.81376 *
 * O              56     -0.10150      0.13150      0.80942 *
 * O              57     -0.06110     -0.15408      0.81859 *
 * O              58     -0.10288      0.02979      0.36895 *
 * O              59      0.02754     -0.10439      0.37161 *
 * O              60      0.08067      0.07151      0.36854 *
 * O              61     -1.66056      1.76744     -1.02944 *
 * O              62     -0.68958     -2.30208     -1.04067 *
 * O              63      2.34734      0.54932     -1.03950 *
 * O              64      0.08652     -0.02063     -0.37766 *
 * O              65     -0.02193      0.08552     -0.37445 *
 * O              66     -0.05724     -0.06485     -0.37530 *
 * O              67      1.64933     -1.77707      0.97529 *
 * O              68      0.70156      2.29146      0.97001 *
 * O              69     -2.34218     -0.54929      0.97108 *
 * O              70     -0.17847     -0.01162     -0.75464 *
 * O              71      0.10326     -0.14122     -0.75572 *
 * O              72      0.07739      0.15019     -0.75627 *
 * O              73      0.16648      0.01510      0.81570 *
 * O              74     -0.10500      0.12763      0.81347 *
 * O              75     -0.06393     -0.15184      0.81472 *
 * O              76     -0.10040      0.02821      0.37241 *
 * O              77      0.02044     -0.10297      0.37230 *
 * O              78      0.08365      0.07289      0.37092 *
 * O              79     -1.66649      1.77349     -1.03829 *
 * O              80     -0.69157     -2.31013     -1.03244 *
 * O              81      2.33016      0.54952     -1.04814 *
 * O              82      0.08672     -0.02025     -0.37620 *
 * O              83     -0.02132      0.08745     -0.37853 *
 * O              84     -0.05902     -0.06135     -0.37614 *
 * O              85      1.64887     -1.76595      0.97162 *
 * O              86      0.72367      2.34068      0.98237 *
 * O              87     -2.36231     -0.55079      0.97948 *
 * O              88     -0.17969     -0.00920     -0.76391 *
 * O              89      0.09534     -0.14746     -0.76651 *
 * O              90      0.08468      0.15020     -0.75676 *
 * O              91      0.16416      0.01708      0.81441 *
 * O              92     -0.10107      0.13148      0.80877 *
 * O              93     -0.05808     -0.15413      0.80847 *
 * O              94     -0.10138      0.02212      0.36816 *
 * O              95      0.02538     -0.10268      0.36991 *
 * O              96      0.08013      0.07558      0.36634 *
 * O              97     -1.65988      1.77499     -1.03314 *
 * O              98     -0.68120     -2.28177     -1.02101 *
 * O              99      2.31637      0.54390     -1.03033 *
 * O             100      0.08681     -0.01404     -0.37319 *
 * O             101     -0.01844      0.08321     -0.37582 *
 * O             102     -0.05563     -0.06108     -0.37894 *
 * O             103      1.63984     -1.74626      0.96959 *
 * O             104      0.69807      2.28977      0.97417 *
 * O             105     -2.35667     -0.54330      0.98447 *
 * O             106     -0.17122     -0.01388     -0.76482 *
 * O             107      0.09688     -0.14614     -0.76101 *
 * O             108      0.07864      0.15520     -0.76164 *
 * O             109      0.16673      0.01529      0.82154 *
 * O             110     -0.10151      0.13190      0.81473 *
 * O             111     -0.05835     -0.14902      0.81222 *
 * O             112     -0.10225      0.02562      0.36748 *
 * O             113      0.02295     -0.10287      0.37049 *
 * O             114      0.08354      0.07452      0.36623 *
 * O             115     -1.66080      1.77705     -1.03216 *
 * O             116     -0.68623     -2.30262     -1.03001 *
 * O             117      2.31884      0.55289     -1.02749 *
 * O             118      0.08851     -0.02063     -0.37334 *
 * O             119     -0.02041      0.08076     -0.38255 *
 * O             120     -0.06146     -0.06451     -0.37289 *
 * O             121      1.64939     -1.76878      0.97114 *
 * O             122      0.71041      2.30208      0.97087 *
 * O             123     -2.37716     -0.54403      0.97807 *
 * O             124     -0.17505     -0.00916     -0.76738 *
 * O             125      0.09611     -0.13872     -0.76162 *
 * O             126      0.07500      0.14770     -0.76883 *
 * O             127      0.16346      0.02242      0.80640 *
 * O             128     -0.10092      0.13257      0.81124 *
 * O             129     -0.06097     -0.15338      0.81241 *
 * O             130     -0.10452      0.02426      0.36453 *
 * O             131      0.02251     -0.09856      0.36946 *
 * O             132      0.08378      0.07562      0.36683 *
 * O             133     -1.64334      1.74557     -1.03333 *
 * O             134     -0.69139     -2.29208     -1.02881 *
 * O             135      2.34404      0.54728     -1.03111 *
 * O             136      0.08939     -0.01715     -0.37276 *
 * O             137     -0.02152      0.08176     -0.37885 *
 * O             138     -0.05748     -0.06550     -0.37656 *
 * O             139      1.65579     -1.78144      0.96610 *
 * O             140      0.70259      2.30062      0.97988 *
 * O             141     -2.37674     -0.54580      0.98248 *
 * O             142     -0.17162     -0.01161     -0.75908 *
 * O             143      0.09225     -0.14371     -0.75626 *
 * O             144      0.07458      0.15180     -0.75962 *
 * O             145      0.16327      0.02065      0.81887 *
 * O             146     -0.10306      0.13488      0.80851 *
 * O             147     -0.05671     -0.15368      0.80949 *
 * O             148     -0.10158      0.02733      0.37112 *
 * O             149      0.02180     -0.10444      0.37266 *
 * O             150      0.07680      0.07538      0.36331 *
 * O             151     -1.65535      1.76780     -1.03155 *
 * O             152     -0.70850     -2.34223     -1.03766 *
 * O             153      2.32148      0.55772     -1.02961 *
 * O             154      0.08757     -0.01474     -0.37298 *
 * O             155     -0.02251      0.08672     -0.37826 *
 * O             156     -0.06144     -0.06889     -0.37262 *
 * O             157      1.65826     -1.78599      0.97751 *
 * O             158      0.70296      2.29982      0.96686 *
 * O             159     -2.34469     -0.54084      0.97399 *
 * O             160     -0.17338     -0.00906     -0.76224 *
 * O             161      0.09294     -0.14469     -0.74681 *
 * O             162      0.07554      0.15245     -0.75921 *
 * Al              1      0.00113     -0.00019     -0.04566 *
 * Al              2     -0.02187     -0.01698     -0.86873 *
 * Al              3      0.01891     -0.00380     -1.98014 *
 * Al              4      0.00075     -0.00020     -0.25285 *
 * Al              5      0.00035     -0.00052     -0.08042 *
 * Al              6      0.00112     -0.00048      0.08202 *
 * Al              7     -0.00864     -0.03293     -7.29639 *
 * Al              8      0.00210      0.04904      7.29761 *
 * Al              9      0.00082     -0.00057      0.05080 *
 * Al             10      0.00090      0.00002      0.27332 *
 * Al             11      0.02251     -0.00515      0.87616 *
 * Al             12     -0.00459      0.00248      1.98073 *
 * Al             13      0.00088     -0.00045     -0.04549 *
 * Al             14     -0.01555     -0.01233     -0.87418 *
 * Al             15      0.00290     -0.01406     -1.97756 *
 * Al             16      0.00105     -0.00045     -0.25313 *
 * Al             17      0.00031     -0.00063     -0.08068 *
 * Al             18      0.00088     -0.00032      0.08198 *
 * Al             19     -0.00037      0.01283     -7.29797 *
 * Al             20      0.02150      0.02718      7.29800 *
 * Al             21      0.00088     -0.00018      0.05142 *
 * Al             22      0.00094     -0.00069      0.27367 *
 * Al             23     -0.00124      0.00912      0.87621 *
 * Al             24     -0.00026     -0.00473      1.99374 *
 * Al             25      0.00067     -0.00058     -0.04554 *
 * Al             26      0.01695     -0.00425     -0.86589 *
 * Al             27     -0.00166     -0.00844     -1.98971 *
 * Al             28      0.00114     -0.00019     -0.25254 *
 * Al             29      0.00048     -0.00029     -0.08078 *
 * Al             30      0.00137     -0.00070      0.08227 *
 * Al             31     -0.00235     -0.00283     -7.29681 *
 * Al             32     -0.00705      0.00193      7.29859 *
 * Al             33      0.00092     -0.00046      0.05150 *
 * Al             34      0.00108     -0.00037      0.27394 *
 * Al             35      0.00400     -0.00079      0.86817 *
 * Al             36     -0.00042      0.01057      1.99079 *
 * Al             37      0.00107     -0.00052     -0.04537 *
 * Al             38     -0.00541      0.00036     -0.87026 *
 * Al             39      0.00339     -0.00334     -1.97928 *
 * Al             40      0.00112     -0.00034     -0.25279 *
 * Al             41      0.00048     -0.00079     -0.08069 *
 * Al             42      0.00114     -0.00024      0.08196 *
 * Al             43     -0.02040     -0.01138     -7.29632 *
 * Al             44     -0.02196      0.01637      7.29816 *
 * Al             45      0.00089     -0.00079      0.05099 *
 * Al             46      0.00117     -0.00058      0.27359 *
 * Al             47      0.01363      0.00212      0.87839 *
 * Al             48     -0.00520      0.00529      1.99137 *
 * Al             49      0.00090     -0.00018     -0.04536 *
 * Al             50     -0.02114     -0.01382     -0.88144 *
 * Al             51      0.00785     -0.00192     -1.97656 *
 * Al             52      0.00112     -0.00035     -0.25346 *
 * Al             53      0.00037     -0.00060     -0.08093 *
 * Al             54      0.00141     -0.00001      0.08228 *
 * Al             55     -0.01994      0.00221     -7.29757 *
 * Al             56      0.02748      0.02040      7.29820 *
 * Al             57      0.00072     -0.00036      0.05097 *
 * Al             58      0.00120     -0.00035      0.27399 *
 * Al             59      0.01799     -0.00305      0.87091 *
 * Al             60      0.00395     -0.00876      1.98055 *
 * Al             61      0.00098     -0.00052     -0.04586 *
 * Al             62     -0.02101      0.01159     -0.86933 *
 * Al             63      0.01125     -0.00697     -1.98711 *
 * Al             64      0.00105     -0.00018     -0.25300 *
 * Al             65      0.00057     -0.00059     -0.08065 *
 * Al             66      0.00110     -0.00036      0.08180 *
 * Al             67      0.02609      0.02199     -7.29658 *
 * Al             68      0.00443      0.01658      7.29819 *
 * Al             69      0.00123     -0.00002      0.05132 *
 * Al             70      0.00041     -0.00078      0.27378 *
 * Al             71     -0.01811      0.00124      0.86725 *
 * Al             72      0.00704      0.00351      1.99383 *
 * Al             73      0.00087     -0.00055     -0.04560 *
 * Al             74     -0.01402     -0.01703     -0.87116 *
 * Al             75      0.01300     -0.00437     -1.98106 *
 * Al             76      0.00101     -0.00042     -0.25328 *
 * Al             77      0.00065     -0.00061     -0.08051 *
 * Al             78      0.00086     -0.00021      0.08197 *
 * Al             79     -0.00822     -0.00436     -7.29734 *
 * Al             80      0.00774      0.02552      7.29848 *
 * Al             81      0.00111     -0.00044      0.05128 *
 * Al             82      0.00087     -0.00065      0.27362 *
 * Al             83     -0.00193     -0.01635      0.87651 *
 * Al             84      0.00504      0.00485      1.98541 *
 * Al             85      0.00079     -0.00039     -0.04578 *
 * Al             86      0.00540      0.00134     -0.87272 *
 * Al             87     -0.00171     -0.00364     -1.98453 *
 * Al             88      0.00116     -0.00008     -0.25381 *
 * Al             89      0.00059     -0.00074     -0.08085 *
 * Al             90      0.00137      0.00006      0.08202 *
 * Al             91      0.00742     -0.01692     -7.29702 *
 * Al             92     -0.01872     -0.01582      7.29922 *
 * Al             93      0.00089     -0.00065      0.05138 *
 * Al             94      0.00114     -0.00063      0.27382 *
 * Al             95      0.01045     -0.00717      0.86967 *
 * Al             96      0.00131      0.00630      1.98373 *
 * Al             97      0.00091     -0.00058     -0.04546 *
 * Al             98     -0.01371      0.00089     -0.87650 *
 * Al             99      0.00779      0.00812     -1.97661 *
 * Al            100      0.00096      0.00018     -0.25268 *
 * Al            101      0.00036     -0.00065     -0.08024 *
 * Al            102      0.00093     -0.00012      0.08241 *
 * Al            103     -0.00894     -0.01598     -7.29701 *
 * Al            104     -0.00878      0.01933      7.29804 *
 * Al            105      0.00116     -0.00056      0.05116 *
 * Al            106      0.00106     -0.00061      0.27375 *
 * Al            107      0.00186      0.00120      0.88048 *
 * Al            108     -0.00676      0.00467      1.98875 *
 *                                                          *
 ************************************************************

Writing analysis data to al3x3.castep_bin

Writing model to al3x3.check
 
 A BibTeX formatted list of references used in this run has been written to 
 al3x3.bib
 
Initialisation time =      1.61 s
Calculation time    =    241.72 s
Finalisation time   =     10.83 s
Total time          =    254.16 s
Peak Memory Use     = 7643700 kB
  
Overall parallel efficiency rating: Terrible (19%)                              
  
Data was distributed by:-
G-vector (896-way); efficiency rating: Terrible (20%)                           
k-point (2-way); efficiency rating: Excellent (94%)                             
  
Parallel notes:
1) Calculation only took 243.3 s, so efficiency estimates may be inaccurate.    
