 DBCSR| CPU Multiplication driver                                           XSMM
 DBCSR| Multrec recursion limit                                              512
 DBCSR| Multiplication stack size                                           1000
 DBCSR| Maximum elements for images                                    UNLIMITED
 DBCSR| Multiplicative factor virtual images                                   1
 DBCSR| Use multiplication densification                                       T
 DBCSR| Multiplication size stacks                                             3
 DBCSR| Number of 3D layers                                               SINGLE
 DBCSR| Use MPI memory allocation                                              T
 DBCSR| Use RMA algorithm                                                      F
 DBCSR| Use Communication thread                                               T
 DBCSR| Communication thread load                                             87


  **** **** ******  **  PROGRAM STARTED AT               2020-09-10 20:00:22.513
 ***** ** ***  *** **   PROGRAM STARTED ON                     openhpc-compute-6
 **    ****   ******    PROGRAM STARTED BY                                steveb
 ***** **    ** ** **   PROGRAM PROCESS ID                                 20094
  **** **  *******  **  PROGRAM STARTED IN /alaska/steveb/hpc-tests/stage/alaska
                                           /roce-gcc9-openmpi4-ucx/cp2k/Cp2k_H2O
                                           _256_8

 CP2K| version string:                                          CP2K version 7.1
 CP2K| source code revision number:                                  git:e635599
 CP2K| cp2kflags: libint fftw3 libxc parallel mpi3 scalapack xsmm               
 CP2K| is freely available from                            https://www.cp2k.org/
 CP2K| Program compiled at                          Wed Aug 12 17:59:38 BST 2020
 CP2K| Program compiled on                                       openhpc-login-0
 CP2K| Program compiled for                          linux-centos7-broadwell-gcc
 CP2K| Data directory path    /alaska/steveb/spack/opt/spack/linux-centos7-broad
 CP2K| Input file name                                               H2O-256.inp

 GLOBAL| Force Environment number                                              1
 GLOBAL| Basis set file name                                    ./GTH_BASIS_SETS
 GLOBAL| Potential file name                                         ./POTENTIAL
 GLOBAL| MM Potential file name                                     MM_POTENTIAL
 GLOBAL| Coordinate file name                                      __STD_INPUT__
 GLOBAL| Method name                                                        CP2K
 GLOBAL| Project name                                                    H2O-256
 GLOBAL| Preferred FFT library                                             FFTW3
 GLOBAL| Preferred diagonalization lib.                                       SL
 GLOBAL| Run type                                                             MD
 GLOBAL| All-to-all communication in single precision                          F
 GLOBAL| FFTs using library dependent lengths                                  F
 GLOBAL| Global print level                                                  LOW
 GLOBAL| MPI I/O enabled                                                       T
 GLOBAL| Total number of message passing processes                           256
 GLOBAL| Number of threads for this process                                    1
 GLOBAL| This output is from process                                           0
 GLOBAL| CPU model name                Intel(R) Xeon(R) CPU E5-2683 v4 @ 2.10GHz
 GLOBAL| CPUID                                                              1002

 MEMORY| system memory details [Kb]
 MEMORY|                        rank 0           min           max       average
 MEMORY| MemTotal            131760044     131760044     131760044     131760044
 MEMORY| MemFree             118377844     117679920     118589468     118288551
 MEMORY| Buffers                  1824          1496          5692          2224
 MEMORY| Cached                3148004       3069608       3677184       3228446
 MEMORY| Slab                  1418012       1379924       1585604       1450084
 MEMORY| SReclaimable           231476        216756        231508        224961
 MEMORY| MemLikelyFree       121759148     121553080     121890040     121744183


 GENERATE|  Preliminary Number of Bonds generated:                             0
 GENERATE|  Achieved consistency in connectivity generation.

 *******************************************************************************
 *******************************************************************************
 **                                                                           **
 **     #####                         ##              ##                      **
 **    ##   ##            ##          ##              ##                      **
 **   ##     ##                       ##            ######                    **
 **   ##     ##  ##   ##  ##   #####  ##  ##   ####   ##    #####    #####    **
 **   ##     ##  ##   ##  ##  ##      ## ##   ##      ##   ##   ##  ##   ##   **
 **   ##  ## ##  ##   ##  ##  ##      ####     ###    ##   ######   ######    **
 **    ##  ###   ##   ##  ##  ##      ## ##      ##   ##   ##       ##        **
 **     #######   #####   ##   #####  ##  ##  ####    ##    #####   ##        **
 **           ##                                                    ##        **
 **                                                                           **
 **                                                ... make the atoms dance   **
 **                                                                           **
 **            Copyright (C) by CP2K developers group (2000 - 2019)           **
 **                                                                           **
 *******************************************************************************


 TOTAL NUMBERS AND MAXIMUM NUMBERS

  Total number of            - Atomic kinds:                                   2
                             - Atoms:                                        768
                             - Shell sets:                                  1536
                             - Shells:                                      4608
                             - Primitive Cartesian functions:               5376
                             - Cartesian basis functions:                  10752
                             - Spherical basis functions:                  10240

  Maximum angular momentum of- Orbital basis functions:                        2
                             - Local part of the GTH pseudopotential:          2
                             - Non-local part of the GTH pseudopotential:      0


 SCF PARAMETERS         Density guess:                                    ATOMIC
                        --------------------------------------------------------
                        max_scf:                                              50
                        max_scf_history:                                       0
                        max_diis:                                              4
                        --------------------------------------------------------
                        eps_scf:                                        1.00E-05
                        eps_scf_history:                                0.00E+00
                        eps_diis:                                       1.00E-01
                        eps_eigval:                                     1.00E-05
                        --------------------------------------------------------
                        level_shift [a.u.]:                                 0.00
                        --------------------------------------------------------
                        No outer SCF

 MD| Molecular Dynamics Protocol 
 MD| Ensemble Type                                                           NVE
 MD| Number of Time Steps                                                     10
 MD| Time Step [fs]                                                         0.50
 MD| Temperature [K]                                                      300.00
 MD| Temperature tolerance [K]                                              0.00
 MD| Print MD information every                                        1 step(s)
 MD| File type     Print frequency[steps]                             File names
 MD| Coordinates            1                                  H2O-256-pos-1.xyz
 MD| Velocities             1                                  H2O-256-vel-1.xyz
 MD| Energies               1                                     H2O-256-1.ener
 MD| Dump                  20                                  H2O-256-1.restart

 ROT| Rotational Analysis Info 
 ROT| Principal axes and moments of inertia in atomic units:
 ROT|                                1                 2                 3
 ROT| EIGENVALUES            0.190183434E+10   0.192232499E+10   0.197526716E+10
 ROT|      X                     0.083303953      -0.910013404       0.406123202
 ROT|      Y                     0.938537254       0.208637347       0.274987783
 ROT|      Z                    -0.334975036       0.358254186       0.871461797
 ROT| Number of Rotovibrational vectors:     6

 Calculation of degrees of freedom
                                                      Number of atoms:       768
                                 Number of Intramolecular constraints:         0
                                 Number of Intermolecular constraints:         0
                                  Invariants(translation + rotations):         3
                                                   Degrees of freedom:      2301


 Restraints Information
                                  Number of Intramolecular restraints:         0
                                  Number of Intermolecular restraints:         0
 ************************** Velocities initialization **************************
 Initial Temperature                                                    300.00 K
 COM velocity:           -0.000000000000      0.000000000000      0.000000000000
 *******************************************************************************


 Number of electrons:                                                       2048
 Number of occupied orbitals:                                               1024
 Number of molecular orbitals:                                              1024

 Number of orbital functions:                                              10240
 Number of independent orbital functions:                                  10240

 Extrapolation method: initial_guess


 SCF WAVEFUNCTION OPTIMIZATION

  ----------------------------------- OT ---------------------------------------
  Minimizer      : DIIS                : direct inversion
                                         in the iterative subspace
                                         using   7 DIIS vectors
                                         safer DIIS on
  Preconditioner : FULL_KINETIC        : inversion of T + eS
  Precond_solver : DEFAULT
  stepsize       :    0.15000000                  energy_gap     :    0.20000000
  eps_taylor     :   0.10000E-15                  max_taylor     :             4
  ----------------------------------- OT ---------------------------------------

  Step     Update method      Time    Convergence         Total energy    Change
  ------------------------------------------------------------------------------
     1 OT DIIS     0.15E+00    4.4     0.00659818     -4240.4628944206 -4.24E+03
     2 OT DIIS     0.15E+00    1.3     0.00436857     -4294.0959844577 -5.36E+01
     3 OT DIIS     0.15E+00    1.3     0.00339230     -4328.2406241150 -3.41E+01
     4 OT DIIS     0.15E+00    1.3     0.00261110     -4346.1476826975 -1.79E+01
     5 OT DIIS     0.15E+00    1.3     0.00187372     -4363.4180981678 -1.73E+01
     6 OT DIIS     0.15E+00    1.3     0.00146529     -4374.8645554171 -1.14E+01
     7 OT DIIS     0.15E+00    1.3     0.00113319     -4383.9307180874 -9.07E+00
     8 OT DIIS     0.15E+00    1.3     0.00087803     -4390.2031646565 -6.27E+00
     9 OT DIIS     0.15E+00    1.3     0.00068891     -4394.3786502431 -4.18E+00
    10 OT DIIS     0.15E+00    1.3     0.00054026     -4397.2255497742 -2.85E+00
    11 OT DIIS     0.15E+00    1.3     0.00043682     -4399.1371369123 -1.91E+00
    12 OT DIIS     0.15E+00    1.3     0.00035756     -4400.3373280898 -1.20E+00
    13 OT DIIS     0.15E+00    1.3     0.00032467     -4401.0508517510 -7.14E-01
    14 OT DIIS     0.15E+00    1.3     0.00026896     -4401.6943643218 -6.44E-01
    15 OT DIIS     0.15E+00    1.3     0.00022933     -4402.2214678920 -5.27E-01
    16 OT DIIS     0.15E+00    1.3     0.00019872     -4402.6226029828 -4.01E-01
    17 OT DIIS     0.15E+00    1.3     0.00017335     -4402.9368257214 -3.14E-01
    18 OT DIIS     0.15E+00    1.3     0.00014372     -4403.2251002618 -2.88E-01
    19 OT DIIS     0.15E+00    1.3     0.00012689     -4403.3711193761 -1.46E-01
    20 OT DIIS     0.15E+00    1.3     0.00009929     -4403.5496584922 -1.79E-01
    21 OT DIIS     0.15E+00    1.3     0.00008567     -4403.6173214937 -6.77E-02
    22 OT DIIS     0.15E+00    1.3     0.00007198     -4403.6862605757 -6.89E-02
    23 OT DIIS     0.15E+00    1.3     0.00006477     -4403.7275509932 -4.13E-02
    24 OT DIIS     0.15E+00    1.3     0.00005740     -4403.7588114623 -3.13E-02
    25 OT DIIS     0.15E+00    1.3     0.00005341     -4403.7801923730 -2.14E-02
    26 OT DIIS     0.15E+00    1.3     0.00004886     -4403.8049251317 -2.47E-02
    27 OT DIIS     0.15E+00    1.3     0.00004667     -4403.8235452906 -1.86E-02
    28 OT DIIS     0.15E+00    1.3     0.00004610     -4403.8342045275 -1.07E-02
    29 OT SD       0.15E+00    1.3     0.00004634     -4403.8394796804 -5.28E-03
    30 OT SD       0.15E+00    1.3     0.00004662     -4403.8428667474 -3.39E-03
    31 OT SD       0.15E+00    1.3     0.00004694     -4403.8462961355 -3.43E-03
    32 OT SD       0.15E+00    1.3     0.00004731     -4403.8497754052 -3.48E-03
    33 OT SD       0.15E+00    1.3     0.00004772     -4403.8533108817 -3.54E-03
    34 OT SD       0.15E+00    1.3     0.00004815     -4403.8569081828 -3.60E-03
    35 OT SD       0.15E+00    1.3     0.00004862     -4403.8605724182 -3.66E-03
    36 OT SD       0.15E+00    1.3     0.00004910     -4403.8643082727 -3.74E-03
    37 OT SD       0.15E+00    1.3     0.00004961     -4403.8681200402 -3.81E-03
    38 OT SD       0.15E+00    1.3     0.00005014     -4403.8720116351 -3.89E-03
    39 OT DIIS     0.15E+00    1.3     0.00005068     -4403.8759865917 -3.97E-03
    40 OT SD       0.15E+00    1.3     0.00010922     -4403.8732740858  2.71E-03
    41 OT SD       0.15E+00    1.3     0.00008579     -4403.8896208556 -1.63E-02
    42 OT SD       0.15E+00    1.3     0.00007623     -4403.9004534608 -1.08E-02
    43 OT SD       0.15E+00    1.3     0.00007159     -4403.9092697160 -8.82E-03
    44 OT SD       0.15E+00    1.3     0.00006925     -4403.9171765687 -7.91E-03
    45 OT SD       0.15E+00    1.3     0.00006804     -4403.9246411875 -7.46E-03
    46 OT DIIS     0.15E+00    1.3     0.00006741     -4403.9318815913 -7.24E-03
    47 OT SD       0.15E+00    1.3     0.00006975     -4403.9911915531 -5.93E-02
    48 OT SD       0.15E+00    1.3     0.00006854     -4403.9987661011 -7.57E-03
    49 OT DIIS     0.15E+00    1.3     0.00006777     -4404.0061082076 -7.34E-03
    50 OT SD       0.15E+00    1.3     0.00012189     -4404.0045114963  1.60E-03

  Leaving inner SCF loop after reaching    50 steps.


  Electronic density on regular grids:      -2048.0000003168       -0.0000003168
  Core density on regular grids:             2047.9999999924       -0.0000000076
  Total charge density on r-space grids:       -0.0000003245
  Total charge density g-space grids:          -0.0000003245

  Overlap energy of the core charge distribution:               0.00002250401242
  Self energy of the core charge distribution:             -11221.21997975419799
  Core Hamiltonian energy:                                   3302.69873664842589
  Hartree energy:                                            4580.10620841293894
  Exchange-correlation energy:                              -1065.58949930748531

  Total energy:                                             -4404.00451149630499

 *** WARNING in qs_scf.F:542 :: SCF run NOT converged ***


 ENERGY| Total FORCE_EVAL ( QS ) energy (a.u.):            -4404.025411389653527


 MD_ENERGIES| Initialization proceeding


 ******************************** GO CP2K GO! **********************************
 INITIAL POTENTIAL ENERGY[hartree]     =                     -0.440402541139E+04
 INITIAL KINETIC ENERGY[hartree]       =                      0.109302631574E+01
 INITIAL TEMPERATURE[K]                =                                 300.000
 INITIAL VOLUME[bohr^3]                =                      0.518611303645E+05
 INITIAL CELL LNTHS[bohr]   =      0.3729186E+02   0.3729186E+02   0.3729186E+02
 INITIAL CELL ANGLS[deg]    =      0.9000000E+02   0.9000000E+02   0.9000000E+02
 ******************************** GO CP2K GO! **********************************

 Number of electrons:                                                       2048
 Number of occupied orbitals:                                               1024
 Number of molecular orbitals:                                              1024

 Number of orbital functions:                                              10240
 Number of independent orbital functions:                                  10240

 Extrapolation method: PS Nth order


 SCF WAVEFUNCTION OPTIMIZATION

  ----------------------------------- OT ---------------------------------------
  Minimizer      : DIIS                : direct inversion
                                         in the iterative subspace
                                         using   7 DIIS vectors
                                         safer DIIS on
  Preconditioner : FULL_KINETIC        : inversion of T + eS
  Precond_solver : DEFAULT
  stepsize       :    0.15000000                  energy_gap     :    0.20000000
  eps_taylor     :   0.10000E-15                  max_taylor     :             4
  ----------------------------------- OT ---------------------------------------

  Step     Update method      Time    Convergence         Total energy    Change
  ------------------------------------------------------------------------------
     1 OT DIIS     0.15E+00    4.1     0.00018280     -4404.0391585830 -4.40E+03
     2 OT DIIS     0.15E+00    1.3     0.00014374     -4404.0851140244 -4.60E-02
     3 OT DIIS     0.15E+00    1.3     0.00011151     -4404.1418916219 -5.68E-02
     4 OT DIIS     0.15E+00    1.3     0.00009427     -4404.1876343862 -4.57E-02
     5 OT DIIS     0.15E+00    1.3     0.00007283     -4404.2426694818 -5.50E-02
     6 OT DIIS     0.15E+00    1.3     0.00005208     -4404.2825539196 -3.99E-02
     7 OT DIIS     0.15E+00    1.3     0.00003303     -4404.3048191789 -2.23E-02
     8 OT DIIS     0.15E+00    1.3     0.00002080     -4404.3132084628 -8.39E-03
     9 OT DIIS     0.15E+00    1.3     0.00001447     -4404.3155776589 -2.37E-03
    10 OT DIIS     0.15E+00    1.3     0.00001014     -4404.3167030990 -1.13E-03
    11 OT DIIS     0.15E+00    1.3     0.00000704     -4404.3172532155 -5.50E-04

  *** SCF run converged in    11 steps ***


  Electronic density on regular grids:      -2047.9999993858        0.0000006142
  Core density on regular grids:             2047.9999999911       -0.0000000089
  Total charge density on r-space grids:        0.0000006053
  Total charge density g-space grids:           0.0000006053

  Overlap energy of the core charge distribution:               0.00002178937976
  Self energy of the core charge distribution:             -11221.21997975419799
  Core Hamiltonian energy:                                   3301.42596720201163
  Hartree energy:                                            4580.84602232853285
  Exchange-correlation energy:                              -1065.36928478120672

  Total energy:                                             -4404.31725321548038

 ENERGY| Total FORCE_EVAL ( QS ) energy (a.u.):            -4404.317518648878831


 *******************************************************************************
 ENSEMBLE TYPE                =                                              NVE
 STEP NUMBER                  =                                                1
 TIME [fs]                    =                                         0.500000
 CONSERVED QUANTITY [hartree] =                              -0.440319135755E+04

                                              INSTANTANEOUS             AVERAGES
 CPU TIME [s]                 =                       91.02                91.02
 ENERGY DRIFT PER ATOM [K]    =         -0.106480394926E+03   0.000000000000E+00
 POTENTIAL ENERGY[hartree]    =         -0.440431751865E+04  -0.440431751865E+04
 KINETIC ENERGY [hartree]     =          0.112616109618E+01   0.112616109618E+01
 TEMPERATURE [K]              =                     309.094              309.094
 *******************************************************************************


 Number of electrons:                                                       2048
 Number of occupied orbitals:                                               1024
 Number of molecular orbitals:                                              1024

 Number of orbital functions:                                              10240
 Number of independent orbital functions:                                  10240

 Extrapolation method: PS Nth order


 SCF WAVEFUNCTION OPTIMIZATION

  ----------------------------------- OT ---------------------------------------
  Minimizer      : DIIS                : direct inversion
                                         in the iterative subspace
                                         using   7 DIIS vectors
                                         safer DIIS on
  Preconditioner : FULL_KINETIC        : inversion of T + eS
  Precond_solver : DEFAULT
  stepsize       :    0.15000000                  energy_gap     :    0.20000000
  eps_taylor     :   0.10000E-15                  max_taylor     :             4
  ----------------------------------- OT ---------------------------------------

  Step     Update method      Time    Convergence         Total energy    Change
  ------------------------------------------------------------------------------
     1 OT DIIS     0.15E+00    4.1     0.00014876     -4404.3137216244 -4.40E+03
     2 OT DIIS     0.15E+00    1.2     0.00010030     -4404.3419923243 -2.83E-02
     3 OT DIIS     0.15E+00    1.3     0.00006546     -4404.3647679607 -2.28E-02
     4 OT DIIS     0.15E+00    1.3     0.00004563     -4404.3787077323 -1.39E-02
     5 OT DIIS     0.15E+00    1.3     0.00002942     -4404.3880900543 -9.38E-03
     6 OT DIIS     0.15E+00    1.3     0.00001761     -4404.3927508079 -4.66E-03
     7 OT DIIS     0.15E+00    1.3     0.00001076     -4404.3942739619 -1.52E-03
     8 OT DIIS     0.15E+00    1.3     0.00000629     -4404.3948360687 -5.62E-04

  *** SCF run converged in     8 steps ***


  Electronic density on regular grids:      -2047.9999985392        0.0000014608
  Core density on regular grids:             2047.9999999933       -0.0000000067
  Total charge density on r-space grids:        0.0000014542
  Total charge density g-space grids:           0.0000014542

  Overlap energy of the core charge distribution:               0.00001966239464
  Self energy of the core charge distribution:             -11221.21997975419799
  Core Hamiltonian energy:                                   3297.09669556784411
  Hartree energy:                                            4583.93333137917762
  Exchange-correlation energy:                              -1064.20490292392037

  Total energy:                                             -4404.39483606870181

 ENERGY| Total FORCE_EVAL ( QS ) energy (a.u.):            -4404.395001479764687


 *******************************************************************************
 ENSEMBLE TYPE                =                                              NVE
 STEP NUMBER                  =                                                2
 TIME [fs]                    =                                         1.000000
 CONSERVED QUANTITY [hartree] =                              -0.440319281659E+04

                                              INSTANTANEOUS             AVERAGES
 CPU TIME [s]                 =                       14.86                52.94
 ENERGY DRIFT PER ATOM [K]    =         -0.107080300483E+03  -0.535401502414E+02
 POTENTIAL ENERGY[hartree]    =         -0.440439500148E+04  -0.440435626006E+04
 KINETIC ENERGY [hartree]     =          0.120218488825E+01   0.116417299222E+01
 TEMPERATURE [K]              =                     329.960              319.527
 *******************************************************************************


 Number of electrons:                                                       2048
 Number of occupied orbitals:                                               1024
 Number of molecular orbitals:                                              1024

 Number of orbital functions:                                              10240
 Number of independent orbital functions:                                  10240

 Extrapolation method: PS Nth order


 SCF WAVEFUNCTION OPTIMIZATION

  ----------------------------------- OT ---------------------------------------
  Minimizer      : DIIS                : direct inversion
                                         in the iterative subspace
                                         using   7 DIIS vectors
                                         safer DIIS on
  Preconditioner : FULL_KINETIC        : inversion of T + eS
  Precond_solver : DEFAULT
  stepsize       :    0.15000000                  energy_gap     :    0.20000000
  eps_taylor     :   0.10000E-15                  max_taylor     :             4
  ----------------------------------- OT ---------------------------------------

  Step     Update method      Time    Convergence         Total energy    Change
  ------------------------------------------------------------------------------
     1 OT DIIS     0.15E+00    4.0     0.00015823     -4404.2469682229 -4.40E+03
     2 OT DIIS     0.15E+00    1.3     0.00013396     -4404.2828582374 -3.59E-02
     3 OT DIIS     0.15E+00    1.3     0.00010640     -4404.3414312617 -5.86E-02
     4 OT DIIS     0.15E+00    1.3     0.00008705     -4404.3914664172 -5.00E-02
     5 OT DIIS     0.15E+00    1.3     0.00006210     -4404.4448110929 -5.33E-02
     6 OT DIIS     0.15E+00    1.3     0.00003971     -4404.4747281497 -2.99E-02
     7 OT DIIS     0.15E+00    1.3     0.00002588     -4404.4862706559 -1.15E-02
     8 OT DIIS     0.15E+00    1.3     0.00001697     -4404.4904640699 -4.19E-03
     9 OT DIIS     0.15E+00    1.3     0.00001215     -4404.4919567108 -1.49E-03
    10 OT DIIS     0.15E+00    1.3     0.00000828     -4404.4928008398 -8.44E-04

  *** SCF run converged in    10 steps ***


  Electronic density on regular grids:      -2047.9999978023        0.0000021977
  Core density on regular grids:             2047.9999999956       -0.0000000044
  Total charge density on r-space grids:        0.0000021933
  Total charge density g-space grids:           0.0000021933

  Overlap energy of the core charge distribution:               0.00001607574497
  Self energy of the core charge distribution:             -11221.21997975419799
  Core Hamiltonian energy:                                   3290.55866113578759
  Hartree energy:                                            4588.60684591540030
  Exchange-correlation energy:                              -1062.43834421253655

  Total energy:                                             -4404.49280083980193

 ENERGY| Total FORCE_EVAL ( QS ) energy (a.u.):            -4404.493193754942695


 *******************************************************************************
 ENSEMBLE TYPE                =                                              NVE
 STEP NUMBER                  =                                                3
 TIME [fs]                    =                                         1.500000
 CONSERVED QUANTITY [hartree] =                              -0.440319460471E+04

                                              INSTANTANEOUS             AVERAGES
 CPU TIME [s]                 =                       17.66                41.18
 ENERGY DRIFT PER ATOM [K]    =         -0.107815512642E+03  -0.716319377082E+02
 POTENTIAL ENERGY[hartree]    =         -0.440449319375E+04  -0.440440190463E+04
 KINETIC ENERGY [hartree]     =          0.129858904351E+01   0.120897834265E+01
 TEMPERATURE [K]              =                     356.420              331.825
 *******************************************************************************


 Number of electrons:                                                       2048
 Number of occupied orbitals:                                               1024
 Number of molecular orbitals:                                              1024

 Number of orbital functions:                                              10240
 Number of independent orbital functions:                                  10240

 Extrapolation method: PS Nth order


 SCF WAVEFUNCTION OPTIMIZATION

  ----------------------------------- OT ---------------------------------------
  Minimizer      : DIIS                : direct inversion
                                         in the iterative subspace
                                         using   7 DIIS vectors
                                         safer DIIS on
  Preconditioner : FULL_KINETIC        : inversion of T + eS
  Precond_solver : DEFAULT
  stepsize       :    0.15000000                  energy_gap     :    0.20000000
  eps_taylor     :   0.10000E-15                  max_taylor     :             4
  ----------------------------------- OT ---------------------------------------

  Step     Update method      Time    Convergence         Total energy    Change
  ------------------------------------------------------------------------------
     1 OT DIIS     0.15E+00    4.0     0.00015314     -4404.4900598114 -4.40E+03
     2 OT DIIS     0.15E+00    1.1     0.00010507     -4404.5202926250 -3.02E-02
     3 OT DIIS     0.15E+00    1.2     0.00006892     -4404.5459755788 -2.57E-02
     4 OT DIIS     0.15E+00    1.3     0.00004748     -4404.5618188392 -1.58E-02
     5 OT DIIS     0.15E+00    1.3     0.00002782     -4404.5726541482 -1.08E-02
     6 OT DIIS     0.15E+00    1.3     0.00001629     -4404.5765732944 -3.92E-03
     7 OT DIIS     0.15E+00    1.3     0.00000972     -4404.5777705062 -1.20E-03

  *** SCF run converged in     7 steps ***


  Electronic density on regular grids:      -2047.9999971830        0.0000028170
  Core density on regular grids:             2047.9999999947       -0.0000000053
  Total charge density on r-space grids:        0.0000028117
  Total charge density g-space grids:           0.0000028117

  Overlap energy of the core charge distribution:               0.00001168916486
  Self energy of the core charge distribution:             -11221.21997975419799
  Core Hamiltonian energy:                                   3282.59601182384995
  Hartree energy:                                            4594.32239946584286
  Exchange-correlation energy:                              -1060.27621373090687

  Total energy:                                             -4404.57777050624827

 ENERGY| Total FORCE_EVAL ( QS ) energy (a.u.):            -4404.578192806990955


 *******************************************************************************
 ENSEMBLE TYPE                =                                              NVE
 STEP NUMBER                  =                                                4
 TIME [fs]                    =                                         2.000000
 CONSERVED QUANTITY [hartree] =                              -0.440319678029E+04

                                              INSTANTANEOUS             AVERAGES
 CPU TIME [s]                 =                       13.60                34.29
 ENERGY DRIFT PER ATOM [K]    =         -0.108710034884E+03  -0.809014620021E+02
 POTENTIAL ENERGY[hartree]    =         -0.440457819281E+04  -0.440444597667E+04
 KINETIC ENERGY [hartree]     =          0.138141251533E+01   0.125208688582E+01
 TEMPERATURE [K]              =                     379.153              343.657
 *******************************************************************************


 Number of electrons:                                                       2048
 Number of occupied orbitals:                                               1024
 Number of molecular orbitals:                                              1024

 Number of orbital functions:                                              10240
 Number of independent orbital functions:                                  10240

 Extrapolation method: PS Nth order


 SCF WAVEFUNCTION OPTIMIZATION

  ----------------------------------- OT ---------------------------------------
  Minimizer      : DIIS                : direct inversion
                                         in the iterative subspace
                                         using   7 DIIS vectors
                                         safer DIIS on
  Preconditioner : FULL_KINETIC        : inversion of T + eS
  Precond_solver : DEFAULT
  stepsize       :    0.15000000                  energy_gap     :    0.20000000
  eps_taylor     :   0.10000E-15                  max_taylor     :             4
  ----------------------------------- OT ---------------------------------------

  Step     Update method      Time    Convergence         Total energy    Change
  ------------------------------------------------------------------------------
     1 OT DIIS     0.15E+00    4.1     0.00006163     -4404.5901452589 -4.40E+03
     2 OT DIIS     0.15E+00    1.2     0.00005054     -4404.5955169652 -5.37E-03
     3 OT DIIS     0.15E+00    1.3     0.00003470     -4404.6042173991 -8.70E-03
     4 OT DIIS     0.15E+00    1.3     0.00002378     -4404.6096775947 -5.46E-03
     5 OT DIIS     0.15E+00    1.3     0.00001524     -4404.6127360329 -3.06E-03
     6 OT DIIS     0.15E+00    1.3     0.00000976     -4404.6139727685 -1.24E-03

  *** SCF run converged in     6 steps ***


  Electronic density on regular grids:      -2047.9999967013        0.0000032987
  Core density on regular grids:             2047.9999999933       -0.0000000067
  Total charge density on r-space grids:        0.0000032921
  Total charge density g-space grids:           0.0000032921

  Overlap energy of the core charge distribution:               0.00000766391319
  Self energy of the core charge distribution:             -11221.21997975419799
  Core Hamiltonian energy:                                   3274.02698201313615
  Hartree energy:                                            4600.52611116888329
  Exchange-correlation energy:                              -1057.94709386025352

  Total energy:                                             -4404.61397276851858

 ENERGY| Total FORCE_EVAL ( QS ) energy (a.u.):            -4404.614478799397148


 *******************************************************************************
 ENSEMBLE TYPE                =                                              NVE
 STEP NUMBER                  =                                                5
 TIME [fs]                    =                                         2.500000
 CONSERVED QUANTITY [hartree] =                              -0.440319770845E+04

                                              INSTANTANEOUS             AVERAGES
 CPU TIME [s]                 =                       12.53                29.94
 ENERGY DRIFT PER ATOM [K]    =         -0.109091660573E+03  -0.865395017164E+02
 POTENTIAL ENERGY[hartree]    =         -0.440461447880E+04  -0.440447967710E+04
 KINETIC ENERGY [hartree]     =          0.141677035048E+01   0.128502357875E+01
 TEMPERATURE [K]              =                     388.857              352.697
 *******************************************************************************


 Number of electrons:                                                       2048
 Number of occupied orbitals:                                               1024
 Number of molecular orbitals:                                              1024

 Number of orbital functions:                                              10240
 Number of independent orbital functions:                                  10240

 Extrapolation method: PS Nth order


 SCF WAVEFUNCTION OPTIMIZATION

  ----------------------------------- OT ---------------------------------------
  Minimizer      : DIIS                : direct inversion
                                         in the iterative subspace
                                         using   7 DIIS vectors
                                         safer DIIS on
  Preconditioner : FULL_KINETIC        : inversion of T + eS
  Precond_solver : DEFAULT
  stepsize       :    0.15000000                  energy_gap     :    0.20000000
  eps_taylor     :   0.10000E-15                  max_taylor     :             4
  ----------------------------------- OT ---------------------------------------

  Step     Update method      Time    Convergence         Total energy    Change
  ------------------------------------------------------------------------------
     1 OT DIIS     0.15E+00    4.0     0.00005084     -4404.5711228229 -4.40E+03
     2 OT DIIS     0.15E+00    1.2     0.00004156     -4404.5747915293 -3.67E-03
     3 OT DIIS     0.15E+00    1.1     0.00002231     -4404.5814001371 -6.61E-03
     4 OT DIIS     0.15E+00    1.2     0.00001330     -4404.5834334591 -2.03E-03
     5 OT DIIS     0.15E+00    1.2     0.00000804     -4404.5841619666 -7.29E-04

  *** SCF run converged in     5 steps ***


  Electronic density on regular grids:      -2047.9999963765        0.0000036235
  Core density on regular grids:             2047.9999999959       -0.0000000041
  Total charge density on r-space grids:        0.0000036194
  Total charge density g-space grids:           0.0000036194

  Overlap energy of the core charge distribution:               0.00000476323029
  Self energy of the core charge distribution:             -11221.21997975419799
  Core Hamiltonian energy:                                   3265.82480004923673
  Hartree energy:                                            4606.50882342935347
  Exchange-correlation energy:                              -1055.69781045420291

  Total energy:                                             -4404.58416196657981

 ENERGY| Total FORCE_EVAL ( QS ) energy (a.u.):            -4404.584423540327407


 *******************************************************************************
 ENSEMBLE TYPE                =                                              NVE
 STEP NUMBER                  =                                                6
 TIME [fs]                    =                                         3.000000
 CONSERVED QUANTITY [hartree] =                              -0.440319692461E+04

                                              INSTANTANEOUS             AVERAGES
 CPU TIME [s]                 =                       10.70                26.73
 ENERGY DRIFT PER ATOM [K]    =         -0.108769373828E+03  -0.902444804016E+02
 POTENTIAL ENERGY[hartree]    =         -0.440458442354E+04  -0.440449713484E+04
 KINETIC ENERGY [hartree]     =          0.138749892958E+01   0.130210280389E+01
 TEMPERATURE [K]              =                     380.823              357.385
 *******************************************************************************


 Number of electrons:                                                       2048
 Number of occupied orbitals:                                               1024
 Number of molecular orbitals:                                              1024

 Number of orbital functions:                                              10240
 Number of independent orbital functions:                                  10240

 Extrapolation method: PS Nth order


 SCF WAVEFUNCTION OPTIMIZATION

  ----------------------------------- OT ---------------------------------------
  Minimizer      : DIIS                : direct inversion
                                         in the iterative subspace
                                         using   7 DIIS vectors
                                         safer DIIS on
  Preconditioner : FULL_KINETIC        : inversion of T + eS
  Precond_solver : DEFAULT
  stepsize       :    0.15000000                  energy_gap     :    0.20000000
  eps_taylor     :   0.10000E-15                  max_taylor     :             4
  ----------------------------------- OT ---------------------------------------

  Step     Update method      Time    Convergence         Total energy    Change
  ------------------------------------------------------------------------------
     1 OT DIIS     0.15E+00    4.0     0.00004732     -4404.4843011534 -4.40E+03
     2 OT DIIS     0.15E+00    1.1     0.00003945     -4404.4875114543 -3.21E-03
     3 OT DIIS     0.15E+00    1.1     0.00002142     -4404.4939421593 -6.43E-03
     4 OT DIIS     0.15E+00    1.1     0.00001360     -4404.4959163980 -1.97E-03
     5 OT DIIS     0.15E+00    1.1     0.00000907     -4404.4966886011 -7.72E-04

  *** SCF run converged in     5 steps ***


  Electronic density on regular grids:      -2047.9999961952        0.0000038048
  Core density on regular grids:             2048.0000000013        0.0000000013
  Total charge density on r-space grids:        0.0000038062
  Total charge density g-space grids:           0.0000038062

  Overlap energy of the core charge distribution:               0.00000301337294
  Self energy of the core charge distribution:             -11221.21997975419799
  Core Hamiltonian energy:                                   3258.62551829722634
  Hartree energy:                                            4611.81439408857750
  Exchange-correlation energy:                              -1053.71662424608212

  Total energy:                                             -4404.49668860110432

 ENERGY| Total FORCE_EVAL ( QS ) energy (a.u.):            -4404.497060886993495


 *******************************************************************************
 ENSEMBLE TYPE                =                                              NVE
 STEP NUMBER                  =                                                7
 TIME [fs]                    =                                         3.500000
 CONSERVED QUANTITY [hartree] =                              -0.440319454859E+04

                                              INSTANTANEOUS             AVERAGES
 CPU TIME [s]                 =                       10.65                24.43
 ENERGY DRIFT PER ATOM [K]    =         -0.107792437792E+03  -0.927513314573E+02
 POTENTIAL ENERGY[hartree]    =         -0.440449706089E+04  -0.440449712427E+04
 KINETIC ENERGY [hartree]     =          0.130251229623E+01   0.130216130279E+01
 TEMPERATURE [K]              =                     357.497              357.401
 *******************************************************************************


 Number of electrons:                                                       2048
 Number of occupied orbitals:                                               1024
 Number of molecular orbitals:                                              1024

 Number of orbital functions:                                              10240
 Number of independent orbital functions:                                  10240

 Extrapolation method: PS Nth order


 SCF WAVEFUNCTION OPTIMIZATION

  ----------------------------------- OT ---------------------------------------
  Minimizer      : DIIS                : direct inversion
                                         in the iterative subspace
                                         using   7 DIIS vectors
                                         safer DIIS on
  Preconditioner : FULL_KINETIC        : inversion of T + eS
  Precond_solver : DEFAULT
  stepsize       :    0.15000000                  energy_gap     :    0.20000000
  eps_taylor     :   0.10000E-15                  max_taylor     :             4
  ----------------------------------- OT ---------------------------------------

  Step     Update method      Time    Convergence         Total energy    Change
  ------------------------------------------------------------------------------
     1 OT DIIS     0.15E+00    4.0     0.00004301     -4404.3743164785 -4.40E+03
     2 OT DIIS     0.15E+00    1.2     0.00003574     -4404.3769672500 -2.65E-03
     3 OT DIIS     0.15E+00    1.2     0.00001697     -4404.3823772095 -5.41E-03
     4 OT DIIS     0.15E+00    1.2     0.00001149     -4404.3834560639 -1.08E-03
     5 OT DIIS     0.15E+00    1.2     0.00000811     -4404.3839859877 -5.30E-04

  *** SCF run converged in     5 steps ***


  Electronic density on regular grids:      -2047.9999961250        0.0000038750
  Core density on regular grids:             2048.0000000051        0.0000000051
  Total charge density on r-space grids:        0.0000038800
  Total charge density g-space grids:           0.0000038800

  Overlap energy of the core charge distribution:               0.00000208240771
  Self energy of the core charge distribution:             -11221.21997975419799
  Core Hamiltonian energy:                                   3253.02613572180189
  Hartree energy:                                            4615.97174903124505
  Exchange-correlation energy:                              -1052.16189306900151

  Total energy:                                             -4404.38398598774438

 ENERGY| Total FORCE_EVAL ( QS ) energy (a.u.):            -4404.384338184156150


 *******************************************************************************
 ENSEMBLE TYPE                =                                              NVE
 STEP NUMBER                  =                                                8
 TIME [fs]                    =                                         4.000000
 CONSERVED QUANTITY [hartree] =                              -0.440319199948E+04

                                              INSTANTANEOUS             AVERAGES
 CPU TIME [s]                 =                       10.68                22.71
 ENERGY DRIFT PER ATOM [K]    =         -0.106744334858E+03  -0.945004568824E+02
 POTENTIAL ENERGY[hartree]    =         -0.440438433818E+04  -0.440448302601E+04
 KINETIC ENERGY [hartree]     =          0.119233869941E+01   0.128843347737E+01
 TEMPERATURE [K]              =                     327.258              353.633
 *******************************************************************************


 Number of electrons:                                                       2048
 Number of occupied orbitals:                                               1024
 Number of molecular orbitals:                                              1024

 Number of orbital functions:                                              10240
 Number of independent orbital functions:                                  10240

 Extrapolation method: PS Nth order


 SCF WAVEFUNCTION OPTIMIZATION

  ----------------------------------- OT ---------------------------------------
  Minimizer      : DIIS                : direct inversion
                                         in the iterative subspace
                                         using   7 DIIS vectors
                                         safer DIIS on
  Preconditioner : FULL_KINETIC        : inversion of T + eS
  Precond_solver : DEFAULT
  stepsize       :    0.15000000                  energy_gap     :    0.20000000
  eps_taylor     :   0.10000E-15                  max_taylor     :             4
  ----------------------------------- OT ---------------------------------------

  Step     Update method      Time    Convergence         Total energy    Change
  ------------------------------------------------------------------------------
     1 OT DIIS     0.15E+00    4.0     0.00004288     -4404.2745416907 -4.40E+03
     2 OT DIIS     0.15E+00    1.1     0.00003563     -4404.2771688352 -2.63E-03
     3 OT DIIS     0.15E+00    1.1     0.00002055     -4404.2820748082 -4.91E-03
     4 OT DIIS     0.15E+00    1.2     0.00001374     -4404.2838337098 -1.76E-03
     5 OT DIIS     0.15E+00    1.2     0.00000991     -4404.2846248504 -7.91E-04

  *** SCF run converged in     5 steps ***


  Electronic density on regular grids:      -2047.9999961335        0.0000038665
  Core density on regular grids:             2048.0000000029        0.0000000029
  Total charge density on r-space grids:        0.0000038693
  Total charge density g-space grids:           0.0000038693

  Overlap energy of the core charge distribution:               0.00000165738050
  Self energy of the core charge distribution:             -11221.21997975419799
  Core Hamiltonian energy:                                   3249.20727145225646
  Hartree energy:                                            4618.83532483697127
  Exchange-correlation energy:                              -1051.10724304282530

  Total energy:                                             -4404.28462485041382

 ENERGY| Total FORCE_EVAL ( QS ) energy (a.u.):            -4404.285171116453967


 *******************************************************************************
 ENSEMBLE TYPE                =                                              NVE
 STEP NUMBER                  =                                                9
 TIME [fs]                    =                                         4.500000
 CONSERVED QUANTITY [hartree] =                              -0.440318979848E+04

                                              INSTANTANEOUS             AVERAGES
 CPU TIME [s]                 =                       10.71                21.38
 ENERGY DRIFT PER ATOM [K]    =         -0.105839358010E+03  -0.957603347855E+02
 POTENTIAL ENERGY[hartree]    =         -0.440428517112E+04  -0.440446104214E+04
 KINETIC ENERGY [hartree]     =          0.109537263873E+01   0.126698227308E+01
 TEMPERATURE [K]              =                     300.644              347.745
 *******************************************************************************


 Number of electrons:                                                       2048
 Number of occupied orbitals:                                               1024
 Number of molecular orbitals:                                              1024

 Number of orbital functions:                                              10240
 Number of independent orbital functions:                                  10240

 Extrapolation method: PS Nth order


 SCF WAVEFUNCTION OPTIMIZATION

  ----------------------------------- OT ---------------------------------------
  Minimizer      : DIIS                : direct inversion
                                         in the iterative subspace
                                         using   7 DIIS vectors
                                         safer DIIS on
  Preconditioner : FULL_KINETIC        : inversion of T + eS
  Precond_solver : DEFAULT
  stepsize       :    0.15000000                  energy_gap     :    0.20000000
  eps_taylor     :   0.10000E-15                  max_taylor     :             4
  ----------------------------------- OT ---------------------------------------

  Step     Update method      Time    Convergence         Total energy    Change
  ------------------------------------------------------------------------------
     1 OT DIIS     0.15E+00    4.0     0.00004124     -4404.2220637744 -4.40E+03
     2 OT DIIS     0.15E+00    1.1     0.00003464     -4404.2245106679 -2.45E-03
     3 OT DIIS     0.15E+00    1.1     0.00001882     -4404.2295510273 -5.04E-03
     4 OT DIIS     0.15E+00    1.2     0.00001303     -4404.2310033790 -1.45E-03
     5 OT DIIS     0.15E+00    1.1     0.00000959     -4404.2317394628 -7.36E-04

  *** SCF run converged in     5 steps ***


  Electronic density on regular grids:      -2047.9999962032        0.0000037968
  Core density on regular grids:             2047.9999999969       -0.0000000031
  Total charge density on r-space grids:        0.0000037937
  Total charge density g-space grids:           0.0000037937

  Overlap energy of the core charge distribution:               0.00000155876455
  Self energy of the core charge distribution:             -11221.21997975419799
  Core Hamiltonian energy:                                   3247.44517083247956
  Hartree energy:                                            4620.16069497288299
  Exchange-correlation energy:                              -1050.61762707273829

  Total energy:                                             -4404.23173946280895

 ENERGY| Total FORCE_EVAL ( QS ) energy (a.u.):            -4404.232299768341363


 *******************************************************************************
 ENSEMBLE TYPE                =                                              NVE
 STEP NUMBER                  =                                               10
 TIME [fs]                    =                                         5.000000
 CONSERVED QUANTITY [hartree] =                              -0.440318878419E+04

                                              INSTANTANEOUS             AVERAGES
 CPU TIME [s]                 =                       10.66                20.31
 ENERGY DRIFT PER ATOM [K]    =         -0.105422320482E+03  -0.967265333552E+02
 POTENTIAL ENERGY[hartree]    =         -0.440423229977E+04  -0.440443816790E+04
 KINETIC ENERGY [hartree]     =          0.104351557350E+01   0.124463560312E+01
 TEMPERATURE [K]              =                     286.411              341.612
 *******************************************************************************


 -------------------------------------------------------------------------------
 -                                                                             -
 -                                DBCSR STATISTICS                             -
 -                                                                             -
 -------------------------------------------------------------------------------
 COUNTER                                    TOTAL       BLAS       SMM       ACC
 flops     9 x    32 x    32           3321888768       0.0%    100.0%      0.0%
 flops    22 x    32 x    32           4060086272       0.0%    100.0%      0.0%
 flops     9 x     9 x    64        1420239992832       0.0%    100.0%      0.0%
 flops    64 x    64 x    64        1943472701440       0.0%    100.0%      0.0%
 flops    22 x     9 x    64        1972057190400       0.0%    100.0%      0.0%
 flops     9 x    22 x    64        1977770336256       0.0%    100.0%      0.0%
 flops    22 x    22 x    64        2734287699968       0.0%    100.0%      0.0%
 flops     9 x    32 x     9        5962613575680       0.0%    100.0%      0.0%
 flops    22 x    32 x     9        8325932617728       0.0%    100.0%      0.0%
 flops     9 x    32 x    22        8325932617728       0.0%    100.0%      0.0%
 flops    64 x    64 x   640        9814000271360       0.0%    100.0%      0.0%
 flops    22 x    32 x    22       11452938371072       0.0%    100.0%      0.0%
 flops   640 x    64 x    64       12090332938240       0.0%    100.0%      0.0%
 flops   640 x    64 x   640       27487790694400       0.0%    100.0%      0.0%
 flops inhomo. stacks                           0       0.0%      0.0%      0.0%
 flops total                        93.514751E+12       0.0%    100.0%      0.0%
 flops max/rank                    370.326905E+09       0.0%    100.0%      0.0%
 matmuls inhomo. stacks                         0       0.0%      0.0%      0.0%
 matmuls total                         3179645696       0.0%    100.0%      0.0%
 number of processed stacks              15602128       0.0%    100.0%      0.0%
 average stack size                                     0.0     203.8       0.0
 marketing flops                   144.579337E+12
 -------------------------------------------------------------------------------
 # multiplications                           2507
 max memory usage/rank             301.547520E+06
 # max total images/rank                        1
 # max 3D layers                                1
 # MPI messages exchanged                19253760
 MPI messages size (bytes):
  total size                         6.657282E+12
  min size                           0.000000E+00
  max size                           3.276800E+06
  average size                     345.765312E+03
 MPI breakdown and total messages size (bytes):
             size <=      128              124080                        0
       128 < size <=     8192                   0                        0
      8192 < size <=    32768             9114960             298635755520
     32768 < size <=   131072                   0                        0
    131072 < size <=  4194304            10014720            6358633315920
   4194304 < size <= 16777216                   0                        0
  16777216 < size                               0                        0
 -------------------------------------------------------------------------------
 -                                                                             -
 -                      DBCSR MESSAGE PASSING PERFORMANCE                      -
 -                                                                             -
 -------------------------------------------------------------------------------
 ROUTINE             CALLS      AVE VOLUME [Bytes]
 MP_Group              187
 MP_Bcast               15                     12.
 MP_Allreduce        13350                     37.
 MP_Alltoall          9654                 128709.
 MP_Wait            361008
 MP_ISend           160404                 162442.
 MP_IRecv           160404                 162223.
 MP_Memory           82492
 -------------------------------------------------------------------------------

 MEMORY| Estimated peak process memory [MiB]                                 288

 -------------------------------------------------------------------------------
 -                                                                             -
 -                         MESSAGE PASSING PERFORMANCE                         -
 -                                                                             -
 -------------------------------------------------------------------------------

 ROUTINE             CALLS      AVE VOLUME [Bytes]
 MP_Group                4
 MP_Bcast             3985                  45437.
 MP_Allreduce        10921                    799.
 MP_Sync              1623
 MP_Alltoall          2249              627702580.
 MP_ISendRecv       130560                   8640.
 MP_Wait            143244
 MP_comm_split          83
 MP_ISend            30772                  40439.
 MP_IRecv            30772                  40439.
 -------------------------------------------------------------------------------


 -------------------------------------------------------------------------------
 -                                                                             -
 -                           R E F E R E N C E S                               -
 -                                                                             -
 -------------------------------------------------------------------------------
 
 CP2K version 7.1, the CP2K developers group (2019).
 CP2K is freely available from https://www.cp2k.org/ .

 Schuett, Ole; Messmer, Peter; Hutter, Juerg; VandeVondele, Joost. 
 Electronic Structure Calculations on Graphics Processing Units, John
 Wiley & Sons, Ltd, 173-190 (2016). 
 GPU-Accelerated Sparse Matrix-Matrix Multiplication for
 Linear Scaling Density Functional Theory.
 https://dx.doi.org/10.1002/9781118670712.ch8

 Borstnik, U; VandeVondele, J; Weber, V; Hutter, J. 
 PARALLEL COMPUTING, 40 (5-6), 47-58 (2014). 
 Sparse matrix multiplication: The distributed block-compressed sparse
 row library.
 https://dx.doi.org/10.1016/j.parco.2014.03.012

 Hutter, J; Iannuzzi, M; Schiffmann, F; VandeVondele, J. 
 WIREs Comput Mol Sci., 4 (1), 15-25 (2014). 
 CP2K: atomistic simulations of condensed matter systems.
 https://dx.doi.org/10.1002/wcms.1159

 Krack, M. 
 THEORETICAL CHEMISTRY ACCOUNTS, 114 (1-3), 145-152 (2005). 
 Pseudopotentials for H to Kr optimized for gradient-corrected
 exchange-correlation functionals.
 https://dx.doi.org/10.1007/s00214-005-0655-y

 VandeVondele, J; Krack, M; Mohamed, F; Parrinello, M; Chassaing, T;
 Hutter, J. COMPUTER PHYSICS COMMUNICATIONS, 167 (2), 103-128 (2005). 
 QUICKSTEP: Fast and accurate density functional calculations using a
 mixed Gaussian and plane waves approach.
 https://dx.doi.org/10.1016/j.cpc.2004.12.014

 Frigo, M; Johnson, SG. 
 PROCEEDINGS OF THE IEEE, 93 (2), 216-231 (2005). 
 The design and implementation of FFTW3.
 https://dx.doi.org/10.1109/JPROC.2004.840301

 VandeVondele, J; Hutter, J. 
 JOURNAL OF CHEMICAL PHYSICS, 118 (10), 4365-4369 (2003). 
 An efficient orbital transformation method for electronic structure
 calculations.
 https://dx.doi.org/10.1063/1.1543154

 Hartwigsen, C; Goedecker, S; Hutter, J. 
 PHYSICAL REVIEW B, 58 (7), 3641-3662 (1998). 
 Relativistic separable dual-space Gaussian pseudopotentials from H to Rn.
 https://dx.doi.org/10.1103/PhysRevB.58.3641

 Lippert, G; Hutter, J; Parrinello, M. 
 MOLECULAR PHYSICS, 92 (3), 477-487 (1997). 
 A hybrid Gaussian and plane wave density functional scheme.
 https://dx.doi.org/10.1080/002689797170220

 Goedecker, S; Teter, M; Hutter, J. 
 PHYSICAL REVIEW B, 54 (3), 1703-1710 (1996). 
 Separable dual-space Gaussian pseudopotentials.
 https://dx.doi.org/10.1103/PhysRevB.54.1703


 -------------------------------------------------------------------------------
 -                                                                             -
 -                                T I M I N G                                  -
 -                                                                             -
 -------------------------------------------------------------------------------
 SUBROUTINE                       CALLS  ASD         SELF TIME        TOTAL TIME
                                MAXIMUM       AVERAGE  MAXIMUM  AVERAGE  MAXIMUM
 CP2K                                 1  1.0    0.021    0.034  203.394  203.405
 qs_mol_dyn_low                       1  2.0    0.007    0.011  203.096  203.125
 qs_forces                           11  3.9    0.004    0.005  202.961  202.964
 qs_energies                         11  4.9    0.001    0.002  196.118  196.153
 scf_env_do_scf                      11  5.9    0.001    0.002  182.834  182.840
 scf_env_do_scf_inner_loop          117  6.6    0.007    0.012  145.745  145.747
 velocity_verlet                     10  3.0    0.002    0.002  130.944  130.946
 dbcsr_multiply_generic            2507 12.6    0.206    0.249   83.606   85.754
 qs_scf_new_mos                     117  7.6    0.001    0.001   82.647   82.985
 qs_scf_loop_do_ot                  117  8.6    0.001    0.001   82.646   82.984
 ot_scf_mini                        117  9.6    0.003    0.004   77.390   77.818
 multiply_cannon                   2507 13.6    0.577    0.760   63.693   67.268
 ot_mini                            117 10.6    0.001    0.002   45.436   45.924
 rebuild_ks_matrix                  128  8.3    0.001    0.001   44.333   44.946
 qs_ks_build_kohn_sham_matrix       128  9.3    0.018    0.021   44.333   44.945
 mp_waitall_1                    495752 15.3   40.107   44.852   40.107   44.852
 qs_ks_update_qs_env                128  7.6    0.001    0.004   39.578   40.142
 multiply_cannon_multrec          40112 14.6   27.168   37.817   27.189   37.845
 init_scf_loop                       11  6.9    0.001    0.001   36.943   36.949
 prepare_preconditioner              11  7.9    0.000    0.000   31.818   31.883
 make_preconditioner                 11  8.9    0.000    0.000   31.818   31.883
 make_full_inverse_cholesky          11  9.9    0.000    0.000   30.249   30.685
 sum_up_and_integrate               128 10.3    0.034    0.054   29.908   29.974
 integrate_v_rspace                 128 11.3   12.029   15.945   29.874   29.938
 qs_rho_update_rho                  128  7.7    0.001    0.002   29.469   29.927
 calculate_rho_elec                 128  8.7   10.400   14.314   29.468   29.926
 multiply_cannon_metrocomm1       40112 14.6    0.157    0.208   19.203   27.903
 qs_ot_get_derivative               117 11.6    0.001    0.002   25.105   25.550
 cp_fm_cholesky_invert               11 10.9   21.943   21.956   21.943   21.956
 apply_preconditioner_dbcsr         128 12.6    0.000    0.001   19.025   20.658
 apply_single                       128 13.6    0.001    0.001   19.025   20.657
 ot_diis_step                       117 11.6    0.005    0.006   20.122   20.125
 rs_pw_transfer                    1046 11.9    0.019    0.024   17.394   19.151
 qs_ot_get_p                        128 10.4    0.001    0.001   18.251   18.799
 density_rs2pw                      128  9.7    0.006    0.007   14.560   16.368
 mp_alltoall_d11v                  2426 14.1   13.980   15.698   13.980   15.698
 multiply_cannon_metrocomm3       40112 14.6    0.126    0.161   10.090   15.318
 make_m2s                          5014 13.6    0.166    0.215   13.951   14.437
 mp_waitany                        8500 13.9   11.310   13.638   11.310   13.638
 rs_distribute_matrix               267 11.0    0.703    0.930   12.094   13.582
 make_images                       5014 14.6    0.271    0.364   12.506   12.868
 qs_ot_p2m_diag                      83 11.4    0.030    0.040   12.170   12.188
 qs_ot_get_derivative_diag           77 12.4    0.002    0.003   11.496   11.843
 cp_dbcsr_syevd                      83 12.4    0.006    0.006   11.342   11.345
 cp_fm_syevd                         83 13.4    0.001    0.001   10.482   10.552
 cp_fm_redistribute_end              83 14.4    9.543   10.434    9.576   10.438
 cp_fm_syevd_base                    83 14.4    0.775    9.942    0.775    9.942
 hybrid_alltoall_any               5200 16.5    0.330    1.369    8.795    9.644
 make_images_data                  5014 15.6    0.102    0.133    8.579    9.268
 init_scf_run                        11  5.9    0.000    0.001    9.153    9.154
 scf_env_initial_rho_setup           11  6.9    0.000    0.002    9.153    9.154
 potential_pw2rs                    128 12.3    0.007    0.008    9.023    9.131
 pw_transfer                       1547 11.6    0.088    0.104    8.277    8.660
 rs_pw_transfer_RS2PW_140           139 11.5    0.357    0.447    6.902    8.634
 fft_wrap_pw1pw2                   1291 12.7    0.014    0.017    8.129    8.510
 wfi_extrapolate                     11  7.9    0.001    0.001    8.035    8.037
 multiply_cannon_metrocomm4       37605 14.6    0.139    0.189    3.525    6.654
 cp_fm_cholesky_decompose            22 10.9    6.498    6.559    6.498    6.559
 mp_irecv_dv                      84756 15.6    3.688    6.426    3.688    6.426
 calculate_dm_sparse                128  9.5    0.001    0.001    5.859    6.355
 mp_sum_d                          4457 12.1    4.234    6.274    4.234    6.274
 fft_wrap_pw1pw2_140                523 13.2    0.278    0.442    5.678    6.184
 mp_sum_l                         11967 13.6    4.571    6.068    4.571    6.068
 fft3d_pb                           523 14.2    1.105    1.758    5.063    5.551
 mp_allgather_i34                  2507 14.6    1.462    5.469    1.462    5.469
 make_images_sizes                 5014 15.6    0.006    0.008    1.830    5.178
 mp_alltoall_i44                   5014 16.6    1.823    5.172    1.823    5.172
 qs_ks_update_qs_env_forces          11  4.9    0.000    0.000    5.086    5.143
 dbcsr_complete_redistribute        395 12.7    0.907    1.269    4.514    5.056
 cp_dbcsr_sm_fm_multiply             37  9.5    0.002    0.002    4.673    4.707
 mp_alltoall_z22v                  1814 16.6    3.922    4.555    3.922    4.555
 dbcsr_dot_sd                      1318 12.0    0.364    0.437    3.022    4.496
 qs_ot_get_derivative_taylor         40 13.0    0.001    0.001    4.236    4.367
 cp_dbcsr_sm_fm_multiply_core        37 10.5    0.000    0.000    3.414    3.580
 qs_ot_get_orbitals                 117 10.6    0.001    0.001    3.487    3.573
 copy_fm_to_dbcsr                   209 11.7    0.002    0.002    2.870    3.415
 copy_dbcsr_to_fm                   186 11.8    0.005    0.006    3.263    3.408
 rs_pw_transfer_RS2PW_50            128 11.7    0.243    0.305    2.551    3.116
 rs_pw_transfer_PW2RS_50            128 14.3    0.258    0.318    2.649    3.035
 qs_energies_init_hamiltonians       11  5.9    0.001    0.007    2.899    2.905
 fft3d_ps                           768 15.0    0.120    0.276    2.378    2.657
 qs_env_update_s_mstruct             11  6.9    0.000    0.000    2.407    2.505
 rs_pw_transfer_PW2RS_140           139 14.0    0.913    1.340    2.188    2.458
 make_images_pack                  5014 15.6    1.575    2.010    1.591    2.025
 transfer_fm_to_dbcsr                11  9.9    0.000    0.000    1.562    1.979
 fft_wrap_pw1pw2_50                 256 14.0    0.021    0.052    1.607    1.880
 dbcsr_make_dense_low              6437 15.6    0.056    0.072    1.428    1.825
 make_basis_sm                       11  9.8    0.001    0.010    1.784    1.796
 cube_transpose_4                   267 15.9    0.079    0.130    1.529    1.792
 mp_alltoall_i22                    716 14.1    1.169    1.761    1.169    1.761
 qs_create_task_list                 11  7.9    0.000    0.000    1.708    1.727
 generate_qs_task_list               11  8.9    0.090    0.141    1.708    1.727
 make_dense_data                   6437 16.6    1.317    1.684    1.344    1.719
 mp_sync                           1623 17.0    1.244    1.688    1.244    1.688
 distribute_tasks                    11  9.9    0.026    0.035    1.618    1.642
 dbcsr_desymmetrize_deep            186 12.8    0.056    0.081    1.449    1.616
 multiply_cannon_metrocomm2       37605 14.6    0.154    0.201    0.725    1.615
 dbcsr_make_images_dense           4384 14.8    0.071    0.093    1.233    1.601
 reorthogonalize_vectors             10  9.0    0.000    0.000    1.562    1.573
 cube_transpose_3                   256 14.5    0.112    0.182    1.303    1.492
 dbcsr_finalize                    6041 13.6    0.029    0.037    1.183    1.474
 transfer_dbcsr_to_fm                11 10.9    0.000    0.000    1.381    1.441
 rs_pw_transfer_PW2RS_20            128 14.3    0.411    0.469    1.237    1.416
 cp_dbcsr_plus_fm_fm_t_native        22  8.9    0.001    0.001    1.294    1.411
 dbcsr_merge_all                   3200 14.6    0.298    0.407    1.103    1.380
 rs_grid_zero                       790 11.5    0.920    1.330    0.920    1.330
 ot_scf_init                         11  7.9    0.001    0.002    1.254    1.280
 cp_gemm                             81  9.0    0.000    0.001    1.200    1.250
 cp_gemm_fm_gemm                     81 10.0    0.001    0.001    1.199    1.249
 cp_fm_gemm                          81 11.0    1.199    1.249    1.199    1.249
 cube_transpose_2                   651 15.2    0.062    0.082    0.788    1.211
 qs_energies_compute_matrix_w        11  5.9    0.000    0.000    1.173    1.206
 calculate_w_matrix_ot               11  6.9    0.001    0.001    1.173    1.206
 build_core_hamiltonian_matrix_      11  4.9    0.000    0.000    0.807    1.198
 rs_pw_transfer_RS2PW_20            128 11.7    0.419    0.483    1.143    1.173
 yz_to_xz                           384 17.3    0.068    0.138    0.976    1.151
 cube_transpose_1                   640 16.2    0.094    0.142    0.648    1.125
 create_local_tasks                  11 10.9    0.010    0.015    1.078    1.078
 mp_alltoall_l11v                    11 11.9    1.047    1.049    1.047    1.049
 mp_bcast_b                        1900 13.7    0.350    1.002    0.350    1.002
 external_control                   127  7.2    0.001    0.008    0.331    0.975
 buffer_matrices_ensure_size       5014 14.6    0.591    0.969    0.597    0.973
 xz_to_yz                           384 14.7    0.054    0.134    0.809    0.955
 calculate_ecore_overlap             22  5.9    0.000    0.000    0.709    0.925
 cp_fm_upper_to_full                 22 12.4    0.508    0.888    0.508    0.888
 mp_alltoall_i11v                  1776 14.1    0.833    0.869    0.833    0.869
 qs_vxc_create                      128 10.3    0.003    0.005    0.707    0.850
 xc_vxc_pw_create                   128 11.3    0.021    0.024    0.705    0.847
 calculate_rho_core                  11  7.9    0.018    0.027    0.692    0.798
 calculate_first_density_matrix       1  7.0    0.000    0.000    0.768    0.779
 dbcsr_new_transposed              1139 13.5    0.021    0.026    0.619    0.682
 build_core_ppl_forces               11  5.9    0.362    0.665    0.362    0.665
 dbcsr_redistribute                 135 14.6    0.016    0.020    0.577    0.640
 build_core_hamiltonian_matrix       11  6.9    0.001    0.001    0.402    0.638
 fft_wrap_pw1pw2_20                 256 14.0    0.005    0.015    0.569    0.627
 arnoldi_extremal                   128 11.4    0.003    0.003    0.566    0.603
 arnoldi_normal_ev                  128 12.4    0.003    0.003    0.563    0.601
 tree_to_linear_d                  1136 14.7    0.370    0.536    0.370    0.536
 dbcsr_copy                        2358 11.8    0.364    0.484    0.393    0.515
 mp_isendrecv_dv                 130560 14.0    0.256    0.511    0.256    0.511
 xc_rho_set_and_dset_create         128 12.3    0.004    0.007    0.383    0.463
 xc_functional_eval                 128 13.3    0.360    0.450    0.360    0.450
 dbcsr_data_release              154659 16.1    0.151    0.286    0.208    0.424
 dbcsr_make_dense                  2053 14.0    0.011    0.014    0.351    0.420
 mp_sum_dm                          460  4.9    0.357    0.417    0.357    0.417
 dbcsr_destroy                    27333 14.2    0.064    0.080    0.210    0.416
 rs_pw_transfer_PW2RS_10            128 14.3    0.130    0.146    0.368    0.405
 load_balance_distributed            22 10.9    0.000    0.000    0.367    0.390
 build_core_ppl                      11  7.9    0.218    0.389    0.218    0.389
 get_current_loads                  132 11.9    0.075    0.119    0.327    0.376
 build_core_ppnl_forces              11  5.9    0.257    0.375    0.257    0.375
 rs_pw_transfer_RS2PW_10            128 11.7    0.099    0.129    0.337    0.364
 dbcsr_data_copy_aa2               1324 14.1    0.275    0.354    0.275    0.354
 mp_isend_dv                      84756 15.6    0.229    0.348    0.229    0.348
 evaluate_core_matrix_traces        128  8.3    0.001    0.001    0.330    0.334
 calculate_ptrace_kp                256  9.3    0.001    0.001    0.329    0.333
 cp_fm_redistribute_start            83 14.4    0.111    0.294    0.131    0.333
 compute_load_list                   44 11.9    0.100    0.154    0.282    0.327
 dbcsr_matrix_vector_mult          1823 14.1    0.012    0.015    0.285    0.315
 mp_sum_dv                         7094 15.3    0.233    0.312    0.233    0.312
 dbcsr_create_new                 28469 14.9    0.109    0.135    0.236    0.304
 pw_poisson_solve                   128 10.3    0.107    0.164    0.299    0.303
 mp_alltoall_l                      143 12.8    0.238    0.299    0.238    0.299
 pw_gather_p                        651 14.2    0.198    0.297    0.198    0.297
 arnoldi_init                       128 13.4    0.002    0.002    0.248    0.290
 build_subspace                     128 13.4    0.007    0.009    0.284    0.288
 dbcsr_add_d                       1769 12.8    0.002    0.003    0.214    0.283
 dbcsr_add_anytype                 1769 13.8    0.121    0.159    0.212    0.280
 pw_copy                           1024 12.7    0.188    0.277    0.188    0.277
 fft_wrap_pw1pw2_10                 256 14.0    0.002    0.007    0.260    0.271
 dbcsr_cholesky_invert               11 12.9    0.157    0.162    0.268    0.268
 mp_bcast_dv                       1906 16.1    0.081    0.264    0.081    0.264
 mp_sum_iv                          495 12.0    0.172    0.247    0.172    0.247
 integrate_v_core_rspace             11  7.9    0.018    0.027    0.193    0.219
 dbcsr_make_untransposed_blocks    2986 13.5    0.090    0.206    0.100    0.219
 pw_scatter_p                       640 15.2    0.169    0.218    0.169    0.218
 dbcsr_make_undense                2053 14.0    0.134    0.177    0.165    0.216
 cp_dbcsr_cholesky_decompose         11 12.9    0.072    0.072    0.207    0.215
 build_kinetic_matrix                22  6.9    0.135    0.195    0.141    0.202
 build_overlap_matrix                22  6.9    0.130    0.191    0.138    0.202
 merge_index                       3200 15.6    0.141    0.195    0.141    0.195
 dbcsr_data_new                   82484 15.7    0.084    0.107    0.125    0.193
 qs_ot_p2m_taylor                    45 11.5    0.000    0.001    0.181    0.185
 mp_irecv_dm3                      4228 13.9    0.082    0.173    0.082    0.173
 dbcsr_col_vec_to_rep_row          1823 15.1    0.007    0.010    0.108    0.160
 dbcsr_add_wm_from_matrix           479 12.9    0.002    0.002    0.124    0.158
 quick_finalize                    7513 16.0    0.033    0.043    0.119    0.156
 dbcsr_fill_wm_from_matrix          479 13.9    0.119    0.153    0.120    0.155
 dbcsr_special_finalize            5014 15.6    0.011    0.015    0.117    0.152
 mp_deallocate_d                  19752 17.3    0.061    0.151    0.061    0.151
 cp_fm_triangular_multiply           11 10.8    0.140    0.147    0.140    0.147
 setup_buffer_matrices             5014 14.6    0.023    0.028    0.089    0.145
 build_core_ppnl                     11  7.9    0.080    0.135    0.080    0.135
 mp_rank_compare                    768 16.0    0.093    0.128    0.093    0.128
 qs_init_subsys                       1  2.0    0.004    0.005    0.122    0.123
 mp_isend_iv                      85194 15.6    0.097    0.122    0.097    0.122
 setup_rec_index_2d                5014 14.6    0.096    0.119    0.096    0.119
 md_output                           10  3.0    0.000    0.000    0.008    0.116
 qs_env_setup                         1  3.0    0.001    0.001    0.111    0.113
 optimize_load_list                  22 11.9    0.001    0.001    0.082    0.113
 dbcsr_mm_multrec_init             2507 14.6    0.008    0.009    0.099    0.112
 qs_env_rebuild_pw_env               23  5.3    0.000    0.001    0.110    0.111
 pw_env_rebuild                       1  5.0    0.001    0.001    0.109    0.110
 mp_sum_b                          4417 13.8    0.106    0.108    0.106    0.108
 mp_irecv_iv                      85194 15.6    0.079    0.104    0.079    0.104
 dbcsr_mm_csr_init                 2507 15.6    0.061    0.076    0.091    0.103
 dbcsr_sort_indices               12818 16.3    0.078    0.102    0.078    0.102
 md_write_output                     11  3.9    0.001    0.055    0.002    0.102
 mp_allocate_d                    19752 17.3    0.043    0.100    0.043    0.100
 update_particle_set                 20  4.0    0.000    0.000    0.098    0.099
 pw_axpy                            640 10.6    0.063    0.098    0.063    0.098
 build_qs_neighbor_lists             11  6.9    0.001    0.002    0.067    0.093
 copy_fm_to_dbcsr_bc                209 12.7    0.041    0.053    0.067    0.086
 copy_dbcsr_to_fm_bc                186 12.8    0.065    0.084    0.066    0.085
 cp_fm_create                       457 12.4    0.049    0.084    0.049    0.084
 dbcsr_make_index_exist           28469 15.9    0.050    0.062    0.067    0.083
 mp_cart_sub                        379 13.7    0.076    0.078    0.076    0.078
 mp_cart_create                     191 13.6    0.066    0.077    0.066    0.077
 mp_isend_zv                      24064 17.0    0.025    0.077    0.025    0.077
 mp_bcast_i3                         22 12.9    0.058    0.076    0.058    0.076
 dbcsr_set                         4503 15.0    0.005    0.005    0.062    0.076
 dbcsr_zero                        4657 15.9    0.059    0.072    0.059    0.072
 pw_grid_setup                        4  6.0    0.000    0.000    0.072    0.072
 pw_grid_setup_internal               4  7.0    0.001    0.001    0.072    0.072
 dbcsr_iterator_start             35572 15.9    0.041    0.051    0.056    0.071
 dbcsr_reserve_blocks               809 14.5    0.049    0.065    0.053    0.069
 mp_isend_dm3                      4228 13.9    0.030    0.066    0.030    0.066
 load_balance_replicated             11 10.9    0.001    0.003    0.055    0.056
 dbcsr_make_dists_dense            2192 13.8    0.039    0.043    0.049    0.056
 create_qs_kind_set                   1  2.0    0.000    0.000    0.046    0.055
 cp_fm_init_random                    1  8.0    0.049    0.054    0.049    0.055
 read_qs_kind                         2  3.0    0.017    0.023    0.046    0.055
 dbcsr_distribution_new           13812 14.1    0.046    0.054    0.046    0.054
 dbcsr_iterator_stop              35572 15.9    0.033    0.042    0.042    0.053
 mp_comm_compare                    771 16.0    0.038    0.050    0.038    0.050
 pw_grid_remap                        4  8.0    0.003    0.004    0.043    0.050
 mp_max_l                            22  1.8    0.045    0.048    0.045    0.048
 dbcsr_switch_data_area           17915 16.3    0.019    0.024    0.038    0.048
 cp_dbcsr_alloc_block_from_nbl       88  7.7    0.006    0.008    0.036    0.048
 mp_sum_im3                           4  9.0    0.039    0.047    0.039    0.047
 write_trajectory                    44  4.9    0.001    0.011    0.001    0.047
 dbcsr_matrix_vector_mult_local    1823 15.1    0.032    0.039    0.035    0.044
 dbcsr_work_create                10693 14.7    0.023    0.028    0.034    0.043
 Gram_Schmidt_ortho_d              1695 14.1    0.002    0.005    0.036    0.043
 build_neighbor_lists_sac_ppl        11  7.9    0.029    0.041    0.029    0.041
 parser_read_line                  2169  4.0    0.001    0.001    0.029    0.040
 parser_read_line_low                 4  5.0    0.006    0.013    0.028    0.039
 mp_sum_partial_im                   22 12.9    0.018    0.039    0.018    0.039
 mp_sum_root_iv                      22 12.9    0.005    0.037    0.005    0.037
 broadcast_input_information          4  6.0    0.000    0.000    0.023    0.037
 write_particle_coordinates          11  5.9    0.000    0.036    0.000    0.036
 get_fft_scratch                   1292 15.7    0.013    0.018    0.031    0.034
 pw_zero                            128 10.7    0.024    0.033    0.024    0.033
 dbcsr_reserve_all_blocks           721 14.2    0.002    0.002    0.024    0.032
 dbcsr_gershgorin_norm               47 11.0    0.001    0.001    0.025    0.032
 mp_allgather_l                     143 12.8    0.018    0.031    0.018    0.031
 mp_allocate_i                    21505 17.0    0.024    0.031    0.024    0.031
 compute_evals                      128 13.4    0.018    0.031    0.018    0.031
 mp_deallocate_i                  21505 16.7    0.023    0.030    0.023    0.030
 pw_grid_sort                         4  8.0    0.005    0.012    0.012    0.030
 mp_bcast_i                         101  2.8    0.011    0.030    0.011    0.030
 dbcsr_mm_multrec_finalize         2507 15.6    0.020    0.029    0.021    0.030
 fill_hash_tables                  2507 16.6    0.024    0.028    0.024    0.028
 compute_max_radius                   1  6.0    0.021    0.028    0.021    0.028
 dbcsr_work_destroy_all           10693 15.6    0.016    0.020    0.021    0.027
 topology_control                     1  2.0    0.001    0.002    0.023    0.027
 DGKS_ortho_d                      1695 14.1    0.001    0.003    0.023    0.026
 build_neighbor_lists_sap_ppnl       11  7.9    0.017    0.024    0.017    0.024
 dbcsr_make_dbcsr_index           12919 16.3    0.019    0.024    0.019    0.024
 qs_scf_ensure_work_matrices         11  5.9    0.000    0.000    0.016    0.023
 write_restart                       10  4.0    0.000    0.015    0.006    0.023
 cp_fm_release                      462 12.1    0.005    0.022    0.005    0.022
 dbcsr_iterator_seek              35572 16.9    0.015    0.020    0.015    0.020
 wfs_update                          11  5.9    0.000    0.001    0.014    0.020
 dbcsr_scale_anytype               2015 14.7    0.012    0.018    0.013    0.020
 dbcsr_scale_d                      246 13.5    0.000    0.001    0.013    0.019
 sort_shells                          4  9.0    0.008    0.019    0.008    0.019
 dbcsr_get_data_size_used          5679 14.8    0.015    0.019    0.015    0.019
 mp_comm_split                       83 15.4    0.017    0.019    0.017    0.019
 mp_bcast_im                        129 14.4    0.014    0.018    0.014    0.018
 dbcsr_get_local_rows              4560 14.2    0.014    0.018    0.014    0.018
 mp_maxloc_dv                      1127  1.0    0.016    0.018    0.016    0.018
 mp_bcast_am                          4  7.0    0.012    0.016    0.012    0.016
 dbcsr_get_local_cols              4560 14.2    0.013    0.016    0.013    0.016
 dbcsr_make_index_list             5014 14.6    0.012    0.016    0.012    0.016
 mp_comm_free                       659 13.7    0.005    0.014    0.005    0.014
 calculate_atomic_block_dm            1  8.0    0.002    0.008    0.013    0.014
 dbcsr_index_prune_deleted         4384 15.8    0.007    0.013    0.007    0.013
 dbcsr_scale_by_vector_anytype      283 11.6    0.009    0.011    0.010    0.012
 rs_grid_create_descriptor            4  6.0    0.001    0.001    0.008    0.012
 connectivity_control                 1  3.0    0.000    0.001    0.010    0.012
 create_fast_row_vec_access        1823 15.1    0.002    0.002    0.009    0.012
 mp_irecv_zv                      24064 17.0    0.004    0.012    0.004    0.012
 mp_bcast_av                        563  1.0    0.003    0.004    0.009    0.012
 restraint_control                   11  3.9    0.000    0.000    0.010    0.011
 create_fast_col_vec_access        1823 15.1    0.001    0.002    0.009    0.011
 mp_max_i                           387  1.6    0.009    0.011    0.009    0.011
 cp_fm_to_fm_matrix                  21  7.9    0.007    0.011    0.007    0.011
 transpose_index_local             1139 14.5    0.004    0.005    0.009    0.010
 topology_generate_bond               1  4.0    0.000    0.000    0.009    0.010
 build_neighbor_lists_sab_core       11  7.9    0.007    0.010    0.007    0.010
 cleanup_scf_loop                    11  7.9    0.000    0.001    0.005    0.010
 create_fast_row_vec_access_d      1823 16.1    0.004    0.005    0.008    0.010
 update_input                         1  5.0    0.000    0.000    0.006    0.010
 update_subsys                        1  6.0    0.000    0.000    0.006    0.010
 mp_sum_i                            15  6.7    0.009    0.010    0.009    0.010
 coordinate_control                   1  3.0    0.000    0.000    0.008    0.010
 coordinate_control_READ_COORDI       1  4.0    0.000    0.000    0.008    0.010
 section_coord_val_set                1  7.0    0.006    0.009    0.006    0.009
 read_atoms_input                     1  5.0    0.007    0.009    0.007    0.009
 balance_global_list                 22 12.9    0.000    0.009    0.000    0.009
 create_fast_col_vec_access_d      1823 16.1    0.004    0.005    0.007    0.009
 qs_env_rebuild_rho                  11  7.9    0.000    0.000    0.007    0.009
 qs_rho_rebuild                      11  8.9    0.000    0.001    0.007    0.009
 make_full_kinetic                   11  9.9    0.000    0.000    0.007    0.009
 build_neighbor_lists_sab_all        11  7.9    0.007    0.008    0.007    0.008
 build_neighbor_lists_sab_orb        11  7.9    0.006    0.008    0.006    0.008
 pw_grid_assign                       4  8.0    0.002    0.004    0.007    0.008
 dbcsr_hadamard_product             154 13.4    0.003    0.004    0.006    0.008
 mp_bcast_iv                         23  3.9    0.002    0.007    0.002    0.007
 dbcsr_mm_sched_init               2507 16.6    0.005    0.006    0.006    0.007
 fft3d_s                              1  2.0    0.000    0.000    0.006    0.007
 dbcsr_copy_into_existing            22  7.9    0.005    0.007    0.005    0.007
 mp_comm_dup                          8  6.5    0.005    0.007    0.005    0.007
 dbcsr_make_index_local_row        5014 14.6    0.005    0.007    0.005    0.007
 topology_generate_bond_3             1  5.0    0.000    0.000    0.005    0.006
 pw_scale                           128 10.3    0.004    0.006    0.004    0.006
 create_col_vec_from_matrix         256 13.4    0.001    0.001    0.004    0.006
 build_fist_neighbor_lists            1  6.0    0.000    0.000    0.005    0.006
 build_neighbor_lists                 1  7.0    0.005    0.006    0.005    0.006
 pw_pool_create_pw                 2596 11.8    0.004    0.005    0.004    0.006
 pw_grid_distribute                   4  8.0    0.002    0.003    0.004    0.006
 mp_environ_c                      1295 15.7    0.004    0.006    0.004    0.006
 pw_pool_give_back_pw              3083 12.0    0.004    0.005    0.004    0.005
 scf_post_calculation_gpw            11  5.9    0.001    0.001    0.003    0.005
 write_mo_set_to_restart            117  7.6    0.003    0.005    0.003    0.005
 create_destination_list             22 11.9    0.003    0.004    0.003    0.004
 topology_connectivity_pack           1  3.0    0.000    0.000    0.003    0.004
 scf_c_write_parameters               1  3.0    0.000    0.004    0.000    0.004
 read_qs_section                      1  3.0    0.003    0.004    0.003    0.004
 calculate_atom                       2  9.0    0.000    0.000    0.002    0.004
 calculate_atom_restricted            2 10.0    0.002    0.003    0.002    0.004
 mp_sum_im                           88 11.7    0.003    0.004    0.003    0.004
 mp_environ_l                      2199 15.2    0.003    0.003    0.003    0.003
 write_available_results             11  6.9    0.000    0.000    0.002    0.003
 dbcsr_add_on_diag                   90 12.5    0.000    0.001    0.002    0.003
 ot_scf_read_input                   11  7.9    0.000    0.001    0.001    0.003
 cp_fm_scale_and_add                 24  9.0    0.002    0.003    0.002    0.003
 write_qs_control                     1  3.0    0.003    0.003    0.003    0.003
 topology_generate_bond_4             1  5.0    0.002    0.003    0.003    0.003
 qs_scf_loop_print                  117  7.6    0.002    0.003    0.002    0.003
 ot_readwrite_input                  11  8.9    0.001    0.003    0.001    0.003
 dbcsr_get_global_row_map          2507 13.6    0.002    0.003    0.002    0.003
 create_replicated_col_vec_from     128 13.4    0.001    0.001    0.002    0.003
 atom_int_setup                       2  9.0    0.001    0.003    0.001    0.003
 rot_ana                              1  3.0    0.000    0.001    0.001    0.002
 dbcsr_get_global_col_map          2507 13.6    0.002    0.002    0.002    0.002
 init_qs_kind_set                     1  3.0    0.000    0.000    0.000    0.002
 init_qs_kind                         2  4.0    0.000    0.000    0.000    0.002
 init_cube_info                       4  6.0    0.002    0.002    0.002    0.002
 init_orb_basis_set                   2  5.0    0.000    0.000    0.000    0.002
 init_cphi_and_sphi                   2  6.0    0.000    0.002    0.000    0.002
 mp_cart_rank                      1379 15.0    0.002    0.002    0.002    0.002
 create_replicated_row_vec_from     128 13.4    0.000    0.001    0.002    0.002
 release_fast_vec_access           3646 15.1    0.001    0.002    0.001    0.002
 write_mo_free_results               11  7.9    0.001    0.001    0.001    0.002
 diamat_all                           1  4.0    0.001    0.002    0.001    0.002
 dbcsr_mm_hostdrv_init             2507 17.6    0.001    0.002    0.001    0.002
 create_local_fixd_list              11  4.9    0.002    0.002    0.002    0.002
 fix_atom_control                    11  3.9    0.002    0.002    0.002    0.002
 mp_sum_lv                           20  3.2    0.001    0.002    0.001    0.002
 calculate_atom_vxc_lda              10 11.0    0.001    0.002    0.001    0.002
 mp_alltoall_i                        3 15.0    0.001    0.002    0.001    0.002
 dbcsr_mm_sched_finalize           2507 16.6    0.001    0.002    0.001    0.002
 topology_connectivity_pack_2         1  4.0    0.001    0.001    0.001    0.001
 scf_env_release                      3  4.0    0.000    0.000    0.000    0.001
 qs_efield_local_operator           128 10.3    0.001    0.001    0.001    0.001
 destroy_preconditioner               1  3.0    0.000    0.001    0.000    0.001
 qs_ks_did_change                   139  7.7    0.000    0.000    0.000    0.001
 pw_create                          409 12.9    0.001    0.001    0.001    0.001
 write_mo_dependent_results          11  7.9    0.001    0.001    0.001    0.001
 atom_ppint_setup                     2  9.0    0.001    0.001    0.001    0.001
 qs_scf_print_scf_summary            11  7.9    0.000    0.001    0.000    0.001
 pw_grid_allocate                     4  8.0    0.000    0.001    0.000    0.001
 topology_generate_bond_1             1  5.0    0.001    0.001    0.001    0.001
 rs_grid_create                      26  9.3    0.000    0.001    0.000    0.001
 distribute_molecules_1d              1  3.0    0.001    0.001    0.001    0.001
 distribute_molecules_2d              1  4.0    0.001    0.001    0.001    0.001
 check_generate_mol                   1  6.0    0.001    0.001    0.001    0.001
 dump_info_core_hamiltonian          22  6.9    0.001    0.001    0.001    0.001
 topology_coordinate_pack             1  3.0    0.000    0.000    0.001    0.001
 setup_velocities                     1  3.0    0.000    0.000    0.001    0.001
 set_mo_occupation_1                129  9.4    0.001    0.001    0.001    0.001
 initialize_velocities                1  4.0    0.001    0.001    0.001    0.001
 connectivity_control_check_ele       1  4.0    0.000    0.001    0.000    0.001
 pw_poisson_rebuild                 128 11.3    0.000    0.001    0.000    0.001
 mp_cart_coords                    1792 11.6    0.000    0.001    0.000    0.001
 qs_efield_berry_phase              128 10.3    0.000    0.001    0.000    0.001
 scf_c_create                         1  3.0    0.000    0.001    0.000    0.001
 qs_scf_ensure_mos                   11  5.9    0.000    0.000    0.000    0.001
 mpools_rebuild_fm_pools              1  4.0    0.000    0.000    0.000    0.001
 scf_c_read_parameters                1  3.0    0.000    0.000    0.000    0.000
 topology_generate_onfo               1  4.0    0.000    0.000    0.000    0.000
 cp_fm_scale                         10  9.0    0.000    0.000    0.000    0.000
 topology_connectivity_pack_4         1  4.0    0.000    0.000    0.000    0.000
 dbcsr_finalize_lib                   1  2.0    0.000    0.000    0.000    0.000
 topology_connectivity_pack_12        1  4.0    0.000    0.000    0.000    0.000
 topology_generate_bond_2             1  5.0    0.000    0.000    0.000    0.000
 topology_connectivity_pack_14        1  4.0    0.000    0.000    0.000    0.000
 atom2d_build                        11  7.9    0.000    0.000    0.000    0.000
 topology_connectivity_pack_9         1  4.0    0.000    0.000    0.000    0.000
 topology_coordinate_pack_11          1  4.0    0.000    0.000    0.000    0.000
 section_velocity_val_set             1  7.0    0.000    0.000    0.000    0.000
 init_interaction_radii               1  3.0    0.000    0.000    0.000    0.000
 create_grid_atom                     2  9.0    0.000    0.000    0.000    0.000
 qs_scf_post_ps_implicit             11  8.9    0.000    0.000    0.000    0.000
 topology_connectivity_pack_10        1  4.0    0.000    0.000    0.000    0.000
 topology_connectivity_pack_11        1  4.0    0.000    0.000    0.000    0.000
 topology_connectivity_pack_5         1  4.0    0.000    0.000    0.000    0.000
 dbcsr_filter_anytype               172  9.7    0.000    0.000    0.000    0.000
 dbcsr_verify_matrix                 22  9.9    0.000    0.000    0.000    0.000
 qs_scf_post_charges                 11  6.9    0.000    0.000    0.000    0.000
 topology_generate_molecule           1  4.0    0.000    0.000    0.000    0.000
 qs_scf_post_transport               11  8.9    0.000    0.000    0.000    0.000
 remove_restart_info                  1  2.0    0.000    0.000    0.000    0.000
 topology_coordinate_pack_1           1  4.0    0.000    0.000    0.000    0.000
 write_structure_data                12  4.8    0.000    0.000    0.000    0.000
 topology_connectivity_pack_13        1  4.0    0.000    0.000    0.000    0.000
 temperature_control                 10  3.0    0.000    0.000    0.000    0.000
 transport_current                   11  9.9    0.000    0.000    0.000    0.000
 -------------------------------------------------------------------------------

 The number of warnings for this run is : 1
 
 -------------------------------------------------------------------------------
  **** **** ******  **  PROGRAM ENDED AT                 2020-09-10 20:03:49.741
 ***** ** ***  *** **   PROGRAM RAN ON                         openhpc-compute-6
 **    ****   ******    PROGRAM RAN BY                                    steveb
 ***** **    ** ** **   PROGRAM PROCESS ID                                 20094
  **** **  *******  **  PROGRAM STOPPED IN /alaska/steveb/hpc-tests/stage/alaska
                                           /roce-gcc9-openmpi4-ucx/cp2k/Cp2k_H2O
                                           _256_8
