 DBCSR| CPU Multiplication driver                                           XSMM
 DBCSR| Multrec recursion limit                                              512
 DBCSR| Multiplication stack size                                           1000
 DBCSR| Maximum elements for images                                    UNLIMITED
 DBCSR| Multiplicative factor virtual images                                   1
 DBCSR| Use multiplication densification                                       T
 DBCSR| Multiplication size stacks                                             3
 DBCSR| Number of 3D layers                                               SINGLE
 DBCSR| Use MPI memory allocation                                              T
 DBCSR| Use RMA algorithm                                                      F
 DBCSR| Use Communication thread                                               T
 DBCSR| Communication thread load                                             87


  **** **** ******  **  PROGRAM STARTED AT               2020-09-10 19:52:26.808
 ***** ** ***  *** **   PROGRAM STARTED ON                     openhpc-compute-2
 **    ****   ******    PROGRAM STARTED BY                                steveb
 ***** **    ** ** **   PROGRAM PROCESS ID                                  8372
  **** **  *******  **  PROGRAM STARTED IN /alaska/steveb/hpc-tests/stage/alaska
                                           /ib-gcc9-openmpi4-ucx/cp2k/Cp2k_H2O_2
                                           56_2

 CP2K| version string:                                          CP2K version 7.1
 CP2K| source code revision number:                                  git:e635599
 CP2K| cp2kflags: libint fftw3 libxc parallel mpi3 scalapack xsmm               
 CP2K| is freely available from                            https://www.cp2k.org/
 CP2K| Program compiled at                          Wed Aug 12 17:59:38 BST 2020
 CP2K| Program compiled on                                       openhpc-login-0
 CP2K| Program compiled for                          linux-centos7-broadwell-gcc
 CP2K| Data directory path    /alaska/steveb/spack/opt/spack/linux-centos7-broad
 CP2K| Input file name                                               H2O-256.inp

 GLOBAL| Force Environment number                                              1
 GLOBAL| Basis set file name                                    ./GTH_BASIS_SETS
 GLOBAL| Potential file name                                         ./POTENTIAL
 GLOBAL| MM Potential file name                                     MM_POTENTIAL
 GLOBAL| Coordinate file name                                      __STD_INPUT__
 GLOBAL| Method name                                                        CP2K
 GLOBAL| Project name                                                    H2O-256
 GLOBAL| Preferred FFT library                                             FFTW3
 GLOBAL| Preferred diagonalization lib.                                       SL
 GLOBAL| Run type                                                             MD
 GLOBAL| All-to-all communication in single precision                          F
 GLOBAL| FFTs using library dependent lengths                                  F
 GLOBAL| Global print level                                                  LOW
 GLOBAL| MPI I/O enabled                                                       T
 GLOBAL| Total number of message passing processes                            64
 GLOBAL| Number of threads for this process                                    1
 GLOBAL| This output is from process                                           0
 GLOBAL| CPU model name                Intel(R) Xeon(R) CPU E5-2683 v4 @ 2.10GHz
 GLOBAL| CPUID                                                              1002

 MEMORY| system memory details [Kb]
 MEMORY|                        rank 0           min           max       average
 MEMORY| MemTotal            131760044     131760044     131760044     131760044
 MEMORY| MemFree             121923568     119044784     121923568     120484176
 MEMORY| Buffers                 36656         31600         36656         34128
 MEMORY| Cached                1242208       1242208       3265160       2253684
 MEMORY| Slab                   797072        797072       1397176       1097124
 MEMORY| SReclaimable           203952        203952        233124        218538
 MEMORY| MemLikelyFree       123406384     122574668     123406384     122990526


 GENERATE|  Preliminary Number of Bonds generated:                             0
 GENERATE|  Achieved consistency in connectivity generation.

 *******************************************************************************
 *******************************************************************************
 **                                                                           **
 **     #####                         ##              ##                      **
 **    ##   ##            ##          ##              ##                      **
 **   ##     ##                       ##            ######                    **
 **   ##     ##  ##   ##  ##   #####  ##  ##   ####   ##    #####    #####    **
 **   ##     ##  ##   ##  ##  ##      ## ##   ##      ##   ##   ##  ##   ##   **
 **   ##  ## ##  ##   ##  ##  ##      ####     ###    ##   ######   ######    **
 **    ##  ###   ##   ##  ##  ##      ## ##      ##   ##   ##       ##        **
 **     #######   #####   ##   #####  ##  ##  ####    ##    #####   ##        **
 **           ##                                                    ##        **
 **                                                                           **
 **                                                ... make the atoms dance   **
 **                                                                           **
 **            Copyright (C) by CP2K developers group (2000 - 2019)           **
 **                                                                           **
 *******************************************************************************


 TOTAL NUMBERS AND MAXIMUM NUMBERS

  Total number of            - Atomic kinds:                                   2
                             - Atoms:                                        768
                             - Shell sets:                                  1536
                             - Shells:                                      4608
                             - Primitive Cartesian functions:               5376
                             - Cartesian basis functions:                  10752
                             - Spherical basis functions:                  10240

  Maximum angular momentum of- Orbital basis functions:                        2
                             - Local part of the GTH pseudopotential:          2
                             - Non-local part of the GTH pseudopotential:      0


 SCF PARAMETERS         Density guess:                                    ATOMIC
                        --------------------------------------------------------
                        max_scf:                                              50
                        max_scf_history:                                       0
                        max_diis:                                              4
                        --------------------------------------------------------
                        eps_scf:                                        1.00E-05
                        eps_scf_history:                                0.00E+00
                        eps_diis:                                       1.00E-01
                        eps_eigval:                                     1.00E-05
                        --------------------------------------------------------
                        level_shift [a.u.]:                                 0.00
                        --------------------------------------------------------
                        No outer SCF

 MD| Molecular Dynamics Protocol 
 MD| Ensemble Type                                                           NVE
 MD| Number of Time Steps                                                     10
 MD| Time Step [fs]                                                         0.50
 MD| Temperature [K]                                                      300.00
 MD| Temperature tolerance [K]                                              0.00
 MD| Print MD information every                                        1 step(s)
 MD| File type     Print frequency[steps]                             File names
 MD| Coordinates            1                                  H2O-256-pos-1.xyz
 MD| Velocities             1                                  H2O-256-vel-1.xyz
 MD| Energies               1                                     H2O-256-1.ener
 MD| Dump                  20                                  H2O-256-1.restart

 ROT| Rotational Analysis Info 
 ROT| Principal axes and moments of inertia in atomic units:
 ROT|                                1                 2                 3
 ROT| EIGENVALUES            0.190183434E+10   0.192232499E+10   0.197526716E+10
 ROT|      X                     0.083303953      -0.910013404       0.406123202
 ROT|      Y                     0.938537254       0.208637347       0.274987783
 ROT|      Z                    -0.334975036       0.358254186       0.871461797
 ROT| Number of Rotovibrational vectors:     6

 Calculation of degrees of freedom
                                                      Number of atoms:       768
                                 Number of Intramolecular constraints:         0
                                 Number of Intermolecular constraints:         0
                                  Invariants(translation + rotations):         3
                                                   Degrees of freedom:      2301


 Restraints Information
                                  Number of Intramolecular restraints:         0
                                  Number of Intermolecular restraints:         0
 ************************** Velocities initialization **************************
 Initial Temperature                                                    300.00 K
 COM velocity:           -0.000000000000      0.000000000000      0.000000000000
 *******************************************************************************


 Number of electrons:                                                       2048
 Number of occupied orbitals:                                               1024
 Number of molecular orbitals:                                              1024

 Number of orbital functions:                                              10240
 Number of independent orbital functions:                                  10240

 Extrapolation method: initial_guess


 SCF WAVEFUNCTION OPTIMIZATION

  ----------------------------------- OT ---------------------------------------
  Minimizer      : DIIS                : direct inversion
                                         in the iterative subspace
                                         using   7 DIIS vectors
                                         safer DIIS on
  Preconditioner : FULL_KINETIC        : inversion of T + eS
  Precond_solver : DEFAULT
  stepsize       :    0.15000000                  energy_gap     :    0.20000000
  eps_taylor     :   0.10000E-15                  max_taylor     :             4
  ----------------------------------- OT ---------------------------------------

  Step     Update method      Time    Convergence         Total energy    Change
  ------------------------------------------------------------------------------
     1 OT DIIS     0.15E+00    6.6     0.00659818     -4240.4628944206 -4.24E+03
     2 OT DIIS     0.15E+00    3.1     0.00436857     -4294.0959844577 -5.36E+01
     3 OT DIIS     0.15E+00    3.1     0.00339230     -4328.2406241150 -3.41E+01
     4 OT DIIS     0.15E+00    3.1     0.00261110     -4346.1476826975 -1.79E+01
     5 OT DIIS     0.15E+00    3.0     0.00187372     -4363.4180981678 -1.73E+01
     6 OT DIIS     0.15E+00    3.0     0.00146529     -4374.8645554171 -1.14E+01
     7 OT DIIS     0.15E+00    3.1     0.00113319     -4383.9307180874 -9.07E+00
     8 OT DIIS     0.15E+00    3.1     0.00087803     -4390.2031646565 -6.27E+00
     9 OT DIIS     0.15E+00    3.2     0.00068891     -4394.3786502431 -4.18E+00
    10 OT DIIS     0.15E+00    3.2     0.00054026     -4397.2255497742 -2.85E+00
    11 OT DIIS     0.15E+00    3.1     0.00043682     -4399.1371369123 -1.91E+00
    12 OT DIIS     0.15E+00    3.1     0.00035756     -4400.3373280898 -1.20E+00
    13 OT DIIS     0.15E+00    3.0     0.00032467     -4401.0508517510 -7.14E-01
    14 OT DIIS     0.15E+00    3.1     0.00026896     -4401.6943643218 -6.44E-01
    15 OT DIIS     0.15E+00    3.0     0.00022933     -4402.2214678920 -5.27E-01
    16 OT DIIS     0.15E+00    3.0     0.00019872     -4402.6226029828 -4.01E-01
    17 OT DIIS     0.15E+00    3.0     0.00017335     -4402.9368257214 -3.14E-01
    18 OT DIIS     0.15E+00    2.9     0.00014372     -4403.2251002618 -2.88E-01
    19 OT DIIS     0.15E+00    2.9     0.00012689     -4403.3711193761 -1.46E-01
    20 OT DIIS     0.15E+00    3.0     0.00009929     -4403.5496584922 -1.79E-01
    21 OT DIIS     0.15E+00    2.9     0.00008567     -4403.6173214937 -6.77E-02
    22 OT DIIS     0.15E+00    3.0     0.00007198     -4403.6862605757 -6.89E-02
    23 OT DIIS     0.15E+00    2.9     0.00006477     -4403.7275509932 -4.13E-02
    24 OT DIIS     0.15E+00    2.8     0.00005740     -4403.7588114623 -3.13E-02
    25 OT DIIS     0.15E+00    2.9     0.00005341     -4403.7801923730 -2.14E-02
    26 OT DIIS     0.15E+00    2.9     0.00004886     -4403.8049251318 -2.47E-02
    27 OT DIIS     0.15E+00    3.0     0.00004667     -4403.8235452906 -1.86E-02
    28 OT DIIS     0.15E+00    3.0     0.00004610     -4403.8342045275 -1.07E-02
    29 OT SD       0.15E+00    3.0     0.00004634     -4403.8394796804 -5.28E-03
    30 OT SD       0.15E+00    3.0     0.00004662     -4403.8428667474 -3.39E-03
    31 OT SD       0.15E+00    3.0     0.00004694     -4403.8462961355 -3.43E-03
    32 OT SD       0.15E+00    3.0     0.00004731     -4403.8497754052 -3.48E-03
    33 OT SD       0.15E+00    3.0     0.00004772     -4403.8533108817 -3.54E-03
    34 OT SD       0.15E+00    2.8     0.00004815     -4403.8569081828 -3.60E-03
    35 OT SD       0.15E+00    3.0     0.00004862     -4403.8605724182 -3.66E-03
    36 OT SD       0.15E+00    3.0     0.00004910     -4403.8643082727 -3.74E-03
    37 OT SD       0.15E+00    3.1     0.00004961     -4403.8681200402 -3.81E-03
    38 OT SD       0.15E+00    3.0     0.00005014     -4403.8720116351 -3.89E-03
    39 OT DIIS     0.15E+00    3.1     0.00005068     -4403.8759865917 -3.97E-03
    40 OT SD       0.15E+00    2.9     0.00010878     -4403.8722695726  3.72E-03
    41 OT SD       0.15E+00    2.9     0.00008549     -4403.8884893893 -1.62E-02
    42 OT SD       0.15E+00    2.8     0.00007600     -4403.8992500596 -1.08E-02
    43 OT SD       0.15E+00    2.9     0.00007140     -4403.9080157104 -8.77E-03
    44 OT SD       0.15E+00    2.9     0.00006909     -4403.9158827668 -7.87E-03
    45 OT SD       0.15E+00    3.0     0.00006790     -4403.9233140361 -7.43E-03
    46 OT DIIS     0.15E+00    2.9     0.00006728     -4403.9305255581 -7.21E-03
    47 OT SD       0.15E+00    2.9     0.00006975     -4403.9878849348 -5.74E-02
    48 OT SD       0.15E+00    2.9     0.00006858     -4403.9954625742 -7.58E-03
    49 OT DIIS     0.15E+00    2.9     0.00006784     -4404.0028156684 -7.35E-03
    50 OT SD       0.15E+00    2.8     0.00012160     -4403.9981529145  4.66E-03

  Leaving inner SCF loop after reaching    50 steps.


  Electronic density on regular grids:      -2048.0000002526       -0.0000002526
  Core density on regular grids:             2047.9999999924       -0.0000000076
  Total charge density on r-space grids:       -0.0000002602
  Total charge density g-space grids:          -0.0000002602

  Overlap energy of the core charge distribution:               0.00002250401242
  Self energy of the core charge distribution:             -11221.21997975419799
  Core Hamiltonian energy:                                   3302.68985449875936
  Hartree energy:                                            4580.11583562012584
  Exchange-correlation energy:                              -1065.58388578322092

  Total energy:                                             -4403.99815291452069

 *** WARNING in qs_scf.F:542 :: SCF run NOT converged ***


 ENERGY| Total FORCE_EVAL ( QS ) energy (a.u.):            -4404.018980506989465


 MD_ENERGIES| Initialization proceeding


 ******************************** GO CP2K GO! **********************************
 INITIAL POTENTIAL ENERGY[hartree]     =                     -0.440401898051E+04
 INITIAL KINETIC ENERGY[hartree]       =                      0.109302631574E+01
 INITIAL TEMPERATURE[K]                =                                 300.000
 INITIAL VOLUME[bohr^3]                =                      0.518611303645E+05
 INITIAL CELL LNTHS[bohr]   =      0.3729186E+02   0.3729186E+02   0.3729186E+02
 INITIAL CELL ANGLS[deg]    =      0.9000000E+02   0.9000000E+02   0.9000000E+02
 ******************************** GO CP2K GO! **********************************

 Number of electrons:                                                       2048
 Number of occupied orbitals:                                               1024
 Number of molecular orbitals:                                              1024

 Number of orbital functions:                                              10240
 Number of independent orbital functions:                                  10240

 Extrapolation method: PS Nth order


 SCF WAVEFUNCTION OPTIMIZATION

  ----------------------------------- OT ---------------------------------------
  Minimizer      : DIIS                : direct inversion
                                         in the iterative subspace
                                         using   7 DIIS vectors
                                         safer DIIS on
  Preconditioner : FULL_KINETIC        : inversion of T + eS
  Precond_solver : DEFAULT
  stepsize       :    0.15000000                  energy_gap     :    0.20000000
  eps_taylor     :   0.10000E-15                  max_taylor     :             4
  ----------------------------------- OT ---------------------------------------

  Step     Update method      Time    Convergence         Total energy    Change
  ------------------------------------------------------------------------------
     1 OT DIIS     0.15E+00    6.5     0.00018271     -4404.0327581846 -4.40E+03
     2 OT DIIS     0.15E+00    3.1     0.00014390     -4404.0786950500 -4.59E-02
     3 OT DIIS     0.15E+00    3.2     0.00011215     -4404.1356202203 -5.69E-02
     4 OT DIIS     0.15E+00    3.1     0.00009530     -4404.1818163810 -4.62E-02
     5 OT DIIS     0.15E+00    3.1     0.00007429     -4404.2380792913 -5.63E-02
     6 OT DIIS     0.15E+00    2.9     0.00005354     -4404.2798536083 -4.18E-02
     7 OT DIIS     0.15E+00    3.1     0.00003406     -4404.3037738721 -2.39E-02
     8 OT DIIS     0.15E+00    3.0     0.00002142     -4404.3128936608 -9.12E-03
     9 OT DIIS     0.15E+00    2.8     0.00001493     -4404.3154274743 -2.53E-03
    10 OT DIIS     0.15E+00    3.0     0.00001048     -4404.3166317540 -1.20E-03
    11 OT DIIS     0.15E+00    2.9     0.00000736     -4404.3172123469 -5.81E-04

  *** SCF run converged in    11 steps ***


  Electronic density on regular grids:      -2047.9999993858        0.0000006142
  Core density on regular grids:             2047.9999999911       -0.0000000089
  Total charge density on r-space grids:        0.0000006053
  Total charge density g-space grids:           0.0000006053

  Overlap energy of the core charge distribution:               0.00002178891990
  Self energy of the core charge distribution:             -11221.21997975419799
  Core Hamiltonian energy:                                   3301.42672856906574
  Hartree energy:                                            4580.84538017920931
  Exchange-correlation energy:                              -1065.36936312987928

  Total energy:                                             -4404.31721234688303

 ENERGY| Total FORCE_EVAL ( QS ) energy (a.u.):            -4404.317502183198485


 *******************************************************************************
 ENSEMBLE TYPE                =                                              NVE
 STEP NUMBER                  =                                                1
 TIME [fs]                    =                                         0.500000
 CONSERVED QUANTITY [hartree] =                              -0.440319132391E+04

                                              INSTANTANEOUS             AVERAGES
 CPU TIME [s]                 =                      199.00               199.00
 ENERGY DRIFT PER ATOM [K]    =         -0.109110717037E+03   0.000000000000E+00
 POTENTIAL ENERGY[hartree]    =         -0.440431750218E+04  -0.440431750218E+04
 KINETIC ENERGY [hartree]     =          0.112617826945E+01   0.112617826945E+01
 TEMPERATURE [K]              =                     309.099              309.099
 *******************************************************************************


 Number of electrons:                                                       2048
 Number of occupied orbitals:                                               1024
 Number of molecular orbitals:                                              1024

 Number of orbital functions:                                              10240
 Number of independent orbital functions:                                  10240

 Extrapolation method: PS Nth order


 SCF WAVEFUNCTION OPTIMIZATION

  ----------------------------------- OT ---------------------------------------
  Minimizer      : DIIS                : direct inversion
                                         in the iterative subspace
                                         using   7 DIIS vectors
                                         safer DIIS on
  Preconditioner : FULL_KINETIC        : inversion of T + eS
  Precond_solver : DEFAULT
  stepsize       :    0.15000000                  energy_gap     :    0.20000000
  eps_taylor     :   0.10000E-15                  max_taylor     :             4
  ----------------------------------- OT ---------------------------------------

  Step     Update method      Time    Convergence         Total energy    Change
  ------------------------------------------------------------------------------
     1 OT DIIS     0.15E+00    6.4     0.00014894     -4404.3139520874 -4.40E+03
     2 OT DIIS     0.15E+00    2.9     0.00010021     -4404.3422571564 -2.83E-02
     3 OT DIIS     0.15E+00    3.0     0.00006541     -4404.3649211060 -2.27E-02
     4 OT DIIS     0.15E+00    3.1     0.00004553     -4404.3788457311 -1.39E-02
     5 OT DIIS     0.15E+00    3.0     0.00002934     -4404.3881722839 -9.33E-03
     6 OT DIIS     0.15E+00    2.9     0.00001753     -4404.3928013491 -4.63E-03
     7 OT DIIS     0.15E+00    2.9     0.00001070     -4404.3943057329 -1.50E-03
     8 OT DIIS     0.15E+00    3.0     0.00000625     -4404.3948602694 -5.55E-04

  *** SCF run converged in     8 steps ***


  Electronic density on regular grids:      -2047.9999985391        0.0000014609
  Core density on regular grids:             2047.9999999933       -0.0000000067
  Total charge density on r-space grids:        0.0000014542
  Total charge density g-space grids:           0.0000014542

  Overlap energy of the core charge distribution:               0.00001966163558
  Self energy of the core charge distribution:             -11221.21997975419799
  Core Hamiltonian energy:                                   3297.09586369423687
  Hartree energy:                                            4583.93393469118200
  Exchange-correlation energy:                              -1064.20469856223417

  Total energy:                                             -4404.39486026937811

 ENERGY| Total FORCE_EVAL ( QS ) energy (a.u.):            -4404.395023285294883


 *******************************************************************************
 ENSEMBLE TYPE                =                                              NVE
 STEP NUMBER                  =                                                2
 TIME [fs]                    =                                         1.000000
 CONSERVED QUANTITY [hartree] =                              -0.440319281295E+04

                                              INSTANTANEOUS             AVERAGES
 CPU TIME [s]                 =                       31.91               115.46
 ENERGY DRIFT PER ATOM [K]    =         -0.109722955241E+03  -0.548614776204E+02
 POTENTIAL ENERGY[hartree]    =         -0.440439502329E+04  -0.440435626273E+04
 KINETIC ENERGY [hartree]     =          0.120221033833E+01   0.116419430389E+01
 TEMPERATURE [K]              =                     329.967              319.533
 *******************************************************************************


 Number of electrons:                                                       2048
 Number of occupied orbitals:                                               1024
 Number of molecular orbitals:                                              1024

 Number of orbital functions:                                              10240
 Number of independent orbital functions:                                  10240

 Extrapolation method: PS Nth order


 SCF WAVEFUNCTION OPTIMIZATION

  ----------------------------------- OT ---------------------------------------
  Minimizer      : DIIS                : direct inversion
                                         in the iterative subspace
                                         using   7 DIIS vectors
                                         safer DIIS on
  Preconditioner : FULL_KINETIC        : inversion of T + eS
  Precond_solver : DEFAULT
  stepsize       :    0.15000000                  energy_gap     :    0.20000000
  eps_taylor     :   0.10000E-15                  max_taylor     :             4
  ----------------------------------- OT ---------------------------------------

  Step     Update method      Time    Convergence         Total energy    Change
  ------------------------------------------------------------------------------
     1 OT DIIS     0.15E+00    6.3     0.00015849     -4404.2407540513 -4.40E+03
     2 OT DIIS     0.15E+00    3.1     0.00013448     -4404.2767979777 -3.60E-02
     3 OT DIIS     0.15E+00    2.9     0.00010737     -4404.3358924920 -5.91E-02
     4 OT DIIS     0.15E+00    3.0     0.00008823     -4404.3870048062 -5.11E-02
     5 OT DIIS     0.15E+00    2.8     0.00006340     -4404.4420012823 -5.50E-02
     6 OT DIIS     0.15E+00    3.0     0.00004075     -4404.4734483098 -3.14E-02
     7 OT DIIS     0.15E+00    2.8     0.00002655     -4404.4858192581 -1.24E-02
     8 OT DIIS     0.15E+00    3.0     0.00001745     -4404.4902719979 -4.45E-03
     9 OT DIIS     0.15E+00    3.0     0.00001249     -4404.4918687029 -1.60E-03
    10 OT DIIS     0.15E+00    2.9     0.00000856     -4404.4927565615 -8.88E-04

  *** SCF run converged in    10 steps ***


  Electronic density on regular grids:      -2047.9999978022        0.0000021978
  Core density on regular grids:             2047.9999999956       -0.0000000044
  Total charge density on r-space grids:        0.0000021934
  Total charge density g-space grids:           0.0000021934

  Overlap energy of the core charge distribution:               0.00001607493796
  Self energy of the core charge distribution:             -11221.21997975419799
  Core Hamiltonian energy:                                   3290.55832187232545
  Hartree energy:                                            4588.60707738017481
  Exchange-correlation energy:                              -1062.43819213478400

  Total energy:                                             -4404.49275656154259

 ENERGY| Total FORCE_EVAL ( QS ) energy (a.u.):            -4404.493180496296191


 *******************************************************************************
 ENSEMBLE TYPE                =                                              NVE
 STEP NUMBER                  =                                                3
 TIME [fs]                    =                                         1.500000
 CONSERVED QUANTITY [hartree] =                              -0.440319456993E+04

                                              INSTANTANEOUS             AVERAGES
 CPU TIME [s]                 =                       38.03                89.65
 ENERGY DRIFT PER ATOM [K]    =         -0.110445362961E+03  -0.733894394007E+02
 POTENTIAL ENERGY[hartree]    =         -0.440449318050E+04  -0.440440190199E+04
 KINETIC ENERGY [hartree]     =          0.129861057127E+01   0.120899972635E+01
 TEMPERATURE [K]              =                     356.426              331.831
 *******************************************************************************


 Number of electrons:                                                       2048
 Number of occupied orbitals:                                               1024
 Number of molecular orbitals:                                              1024

 Number of orbital functions:                                              10240
 Number of independent orbital functions:                                  10240

 Extrapolation method: PS Nth order


 SCF WAVEFUNCTION OPTIMIZATION

  ----------------------------------- OT ---------------------------------------
  Minimizer      : DIIS                : direct inversion
                                         in the iterative subspace
                                         using   7 DIIS vectors
                                         safer DIIS on
  Preconditioner : FULL_KINETIC        : inversion of T + eS
  Precond_solver : DEFAULT
  stepsize       :    0.15000000                  energy_gap     :    0.20000000
  eps_taylor     :   0.10000E-15                  max_taylor     :             4
  ----------------------------------- OT ---------------------------------------

  Step     Update method      Time    Convergence         Total energy    Change
  ------------------------------------------------------------------------------
     1 OT DIIS     0.15E+00    6.3     0.00015398     -4404.4893463429 -4.40E+03
     2 OT DIIS     0.15E+00    2.8     0.00010546     -4404.5198792838 -3.05E-02
     3 OT DIIS     0.15E+00    2.7     0.00006927     -4404.5456592179 -2.58E-02
     4 OT DIIS     0.15E+00    2.9     0.00004766     -4404.5616846489 -1.60E-02
     5 OT DIIS     0.15E+00    2.9     0.00002798     -4404.5725868728 -1.09E-02
     6 OT DIIS     0.15E+00    2.8     0.00001637     -4404.5765531457 -3.97E-03
     7 OT DIIS     0.15E+00    2.9     0.00000976     -4404.5777634543 -1.21E-03

  *** SCF run converged in     7 steps ***


  Electronic density on regular grids:      -2047.9999971830        0.0000028170
  Core density on regular grids:             2047.9999999947       -0.0000000053
  Total charge density on r-space grids:        0.0000028117
  Total charge density g-space grids:           0.0000028117

  Overlap energy of the core charge distribution:               0.00001168851978
  Self energy of the core charge distribution:             -11221.21997975419799
  Core Hamiltonian energy:                                   3282.59523942383476
  Hartree energy:                                            4594.32286201272655
  Exchange-correlation energy:                              -1060.27589682519715

  Total energy:                                             -4404.57776345431375

 ENERGY| Total FORCE_EVAL ( QS ) energy (a.u.):            -4404.578190301336690


 *******************************************************************************
 ENSEMBLE TYPE                =                                              NVE
 STEP NUMBER                  =                                                4
 TIME [fs]                    =                                         2.000000
 CONSERVED QUANTITY [hartree] =                              -0.440319676911E+04

                                              INSTANTANEOUS             AVERAGES
 CPU TIME [s]                 =                       28.26                74.30
 ENERGY DRIFT PER ATOM [K]    =         -0.111349592272E+03  -0.828794776185E+02
 POTENTIAL ENERGY[hartree]    =         -0.440457819030E+04  -0.440444597407E+04
 KINETIC ENERGY [hartree]     =          0.138142118738E+01   0.125210509160E+01
 TEMPERATURE [K]              =                     379.155              343.662
 *******************************************************************************


 Number of electrons:                                                       2048
 Number of occupied orbitals:                                               1024
 Number of molecular orbitals:                                              1024

 Number of orbital functions:                                              10240
 Number of independent orbital functions:                                  10240

 Extrapolation method: PS Nth order


 SCF WAVEFUNCTION OPTIMIZATION

  ----------------------------------- OT ---------------------------------------
  Minimizer      : DIIS                : direct inversion
                                         in the iterative subspace
                                         using   7 DIIS vectors
                                         safer DIIS on
  Preconditioner : FULL_KINETIC        : inversion of T + eS
  Precond_solver : DEFAULT
  stepsize       :    0.15000000                  energy_gap     :    0.20000000
  eps_taylor     :   0.10000E-15                  max_taylor     :             4
  ----------------------------------- OT ---------------------------------------

  Step     Update method      Time    Convergence         Total energy    Change
  ------------------------------------------------------------------------------
     1 OT DIIS     0.15E+00    6.1     0.00006308     -4404.5892445186 -4.40E+03
     2 OT DIIS     0.15E+00    2.8     0.00005158     -4404.5948655957 -5.62E-03
     3 OT DIIS     0.15E+00    2.9     0.00003520     -4404.6039287686 -9.06E-03
     4 OT DIIS     0.15E+00    2.8     0.00002402     -4404.6095541916 -5.63E-03
     5 OT DIIS     0.15E+00    2.9     0.00001544     -4404.6126618469 -3.11E-03
     6 OT DIIS     0.15E+00    2.9     0.00000993     -4404.6139235774 -1.26E-03

  *** SCF run converged in     6 steps ***


  Electronic density on regular grids:      -2047.9999967012        0.0000032988
  Core density on regular grids:             2047.9999999934       -0.0000000066
  Total charge density on r-space grids:        0.0000032921
  Total charge density g-space grids:           0.0000032921

  Overlap energy of the core charge distribution:               0.00000766349643
  Self energy of the core charge distribution:             -11221.21997975419799
  Core Hamiltonian energy:                                   3274.02597006420547
  Hartree energy:                                            4600.52688182351631
  Exchange-correlation energy:                              -1057.94680337439104

  Total energy:                                             -4404.61392357736986

 ENERGY| Total FORCE_EVAL ( QS ) energy (a.u.):            -4404.614450399361886


 *******************************************************************************
 ENSEMBLE TYPE                =                                              NVE
 STEP NUMBER                  =                                                5
 TIME [fs]                    =                                         2.500000
 CONSERVED QUANTITY [hartree] =                              -0.440319768859E+04

                                              INSTANTANEOUS             AVERAGES
 CPU TIME [s]                 =                       25.69                64.58
 ENERGY DRIFT PER ATOM [K]    =         -0.111727647174E+03  -0.886491115295E+02
 POTENTIAL ENERGY[hartree]    =         -0.440461445040E+04  -0.440447966933E+04
 KINETIC ENERGY [hartree]     =          0.141676181271E+01   0.128503643583E+01
 TEMPERATURE [K]              =                     388.855              352.701
 *******************************************************************************


 Number of electrons:                                                       2048
 Number of occupied orbitals:                                               1024
 Number of molecular orbitals:                                              1024

 Number of orbital functions:                                              10240
 Number of independent orbital functions:                                  10240

 Extrapolation method: PS Nth order


 SCF WAVEFUNCTION OPTIMIZATION

  ----------------------------------- OT ---------------------------------------
  Minimizer      : DIIS                : direct inversion
                                         in the iterative subspace
                                         using   7 DIIS vectors
                                         safer DIIS on
  Preconditioner : FULL_KINETIC        : inversion of T + eS
  Precond_solver : DEFAULT
  stepsize       :    0.15000000                  energy_gap     :    0.20000000
  eps_taylor     :   0.10000E-15                  max_taylor     :             4
  ----------------------------------- OT ---------------------------------------

  Step     Update method      Time    Convergence         Total energy    Change
  ------------------------------------------------------------------------------
     1 OT DIIS     0.15E+00    6.2     0.00005149     -4404.5707786957 -4.40E+03
     2 OT DIIS     0.15E+00    2.8     0.00004208     -4404.5745415447 -3.76E-03
     3 OT DIIS     0.15E+00    2.7     0.00002248     -4404.5813274310 -6.79E-03
     4 OT DIIS     0.15E+00    2.7     0.00001328     -4404.5834025738 -2.08E-03
     5 OT DIIS     0.15E+00    2.8     0.00000808     -4404.5841232731 -7.21E-04

  *** SCF run converged in     5 steps ***


  Electronic density on regular grids:      -2047.9999963765        0.0000036235
  Core density on regular grids:             2047.9999999959       -0.0000000041
  Total charge density on r-space grids:        0.0000036194
  Total charge density g-space grids:           0.0000036194

  Overlap energy of the core charge distribution:               0.00000476299769
  Self energy of the core charge distribution:             -11221.21997975419799
  Core Hamiltonian energy:                                   3265.82316605546657
  Hartree energy:                                            4606.51007329109598
  Exchange-correlation energy:                              -1055.69738762845145

  Total energy:                                             -4404.58412327308906

 ENERGY| Total FORCE_EVAL ( QS ) energy (a.u.):            -4404.584392718341405


 *******************************************************************************
 ENSEMBLE TYPE                =                                              NVE
 STEP NUMBER                  =                                                6
 TIME [fs]                    =                                         3.000000
 CONSERVED QUANTITY [hartree] =                              -0.440319691497E+04

                                              INSTANTANEOUS             AVERAGES
 CPU TIME [s]                 =                       22.41                57.55
 ENERGY DRIFT PER ATOM [K]    =         -0.111409561396E+03  -0.924425198407E+02
 POTENTIAL ENERGY[hartree]    =         -0.440458439272E+04  -0.440449712323E+04
 KINETIC ENERGY [hartree]     =          0.138747775262E+01   0.130210998863E+01
 TEMPERATURE [K]              =                     380.817              357.387
 *******************************************************************************


 Number of electrons:                                                       2048
 Number of occupied orbitals:                                               1024
 Number of molecular orbitals:                                              1024

 Number of orbital functions:                                              10240
 Number of independent orbital functions:                                  10240

 Extrapolation method: PS Nth order


 SCF WAVEFUNCTION OPTIMIZATION

  ----------------------------------- OT ---------------------------------------
  Minimizer      : DIIS                : direct inversion
                                         in the iterative subspace
                                         using   7 DIIS vectors
                                         safer DIIS on
  Preconditioner : FULL_KINETIC        : inversion of T + eS
  Precond_solver : DEFAULT
  stepsize       :    0.15000000                  energy_gap     :    0.20000000
  eps_taylor     :   0.10000E-15                  max_taylor     :             4
  ----------------------------------- OT ---------------------------------------

  Step     Update method      Time    Convergence         Total energy    Change
  ------------------------------------------------------------------------------
     1 OT DIIS     0.15E+00    6.3     0.00004788     -4404.4839868103 -4.40E+03
     2 OT DIIS     0.15E+00    2.8     0.00003986     -4404.4872692521 -3.28E-03
     3 OT DIIS     0.15E+00    2.9     0.00002212     -4404.4936913860 -6.42E-03
     4 OT DIIS     0.15E+00    2.8     0.00001396     -4404.4958031358 -2.11E-03
     5 OT DIIS     0.15E+00    2.7     0.00000921     -4404.4966274968 -8.24E-04

  *** SCF run converged in     5 steps ***


  Electronic density on regular grids:      -2047.9999961952        0.0000038048
  Core density on regular grids:             2048.0000000013        0.0000000013
  Total charge density on r-space grids:        0.0000038062
  Total charge density g-space grids:           0.0000038062

  Overlap energy of the core charge distribution:               0.00000301324902
  Self energy of the core charge distribution:             -11221.21997975419799
  Core Hamiltonian energy:                                   3258.62417131454731
  Hartree energy:                                            4611.81548560332340
  Exchange-correlation energy:                              -1053.71630767371835

  Total energy:                                             -4404.49662749679737

 ENERGY| Total FORCE_EVAL ( QS ) energy (a.u.):            -4404.497008399444894


 *******************************************************************************
 ENSEMBLE TYPE                =                                              NVE
 STEP NUMBER                  =                                                7
 TIME [fs]                    =                                         3.500000
 CONSERVED QUANTITY [hartree] =                              -0.440319451982E+04

                                              INSTANTANEOUS             AVERAGES
 CPU TIME [s]                 =                       22.52                52.55
 ENERGY DRIFT PER ATOM [K]    =         -0.110424762635E+03  -0.950114116685E+02
 POTENTIAL ENERGY[hartree]    =         -0.440449700840E+04  -0.440449710683E+04
 KINETIC ENERGY [hartree]     =          0.130248857676E+01   0.130216407264E+01
 TEMPERATURE [K]              =                     357.491              357.401
 *******************************************************************************


 Number of electrons:                                                       2048
 Number of occupied orbitals:                                               1024
 Number of molecular orbitals:                                              1024

 Number of orbital functions:                                              10240
 Number of independent orbital functions:                                  10240

 Extrapolation method: PS Nth order


 SCF WAVEFUNCTION OPTIMIZATION

  ----------------------------------- OT ---------------------------------------
  Minimizer      : DIIS                : direct inversion
                                         in the iterative subspace
                                         using   7 DIIS vectors
                                         safer DIIS on
  Preconditioner : FULL_KINETIC        : inversion of T + eS
  Precond_solver : DEFAULT
  stepsize       :    0.15000000                  energy_gap     :    0.20000000
  eps_taylor     :   0.10000E-15                  max_taylor     :             4
  ----------------------------------- OT ---------------------------------------

  Step     Update method      Time    Convergence         Total energy    Change
  ------------------------------------------------------------------------------
     1 OT DIIS     0.15E+00    6.2     0.00004329     -4404.3741246245 -4.40E+03
     2 OT DIIS     0.15E+00    2.8     0.00003598     -4404.3768098241 -2.69E-03
     3 OT DIIS     0.15E+00    2.8     0.00001748     -4404.3822132473 -5.40E-03
     4 OT DIIS     0.15E+00    2.8     0.00001162     -4404.3833878612 -1.17E-03
     5 OT DIIS     0.15E+00    2.7     0.00000821     -4404.3839296688 -5.42E-04

  *** SCF run converged in     5 steps ***


  Electronic density on regular grids:      -2047.9999961250        0.0000038750
  Core density on regular grids:             2048.0000000051        0.0000000051
  Total charge density on r-space grids:        0.0000038801
  Total charge density g-space grids:           0.0000038801

  Overlap energy of the core charge distribution:               0.00000208234446
  Self energy of the core charge distribution:             -11221.21997975419799
  Core Hamiltonian energy:                                   3253.02537660544021
  Hartree energy:                                            4615.97230905605738
  Exchange-correlation energy:                              -1052.16163765849296

  Total energy:                                             -4404.38392966884931

 ENERGY| Total FORCE_EVAL ( QS ) energy (a.u.):            -4404.384288216355344


 *******************************************************************************
 ENSEMBLE TYPE                =                                              NVE
 STEP NUMBER                  =                                                8
 TIME [fs]                    =                                         4.000000
 CONSERVED QUANTITY [hartree] =                              -0.440319196900E+04

                                              INSTANTANEOUS             AVERAGES
 CPU TIME [s]                 =                       22.46                48.79
 ENERGY DRIFT PER ATOM [K]    =         -0.109375952409E+03  -0.968069792610E+02
 POTENTIAL ENERGY[hartree]    =         -0.440438428822E+04  -0.440448300450E+04
 KINETIC ENERGY [hartree]     =          0.119231921990E+01   0.128843346605E+01
 TEMPERATURE [K]              =                     327.253              353.633
 *******************************************************************************


 Number of electrons:                                                       2048
 Number of occupied orbitals:                                               1024
 Number of molecular orbitals:                                              1024

 Number of orbital functions:                                              10240
 Number of independent orbital functions:                                  10240

 Extrapolation method: PS Nth order


 SCF WAVEFUNCTION OPTIMIZATION

  ----------------------------------- OT ---------------------------------------
  Minimizer      : DIIS                : direct inversion
                                         in the iterative subspace
                                         using   7 DIIS vectors
                                         safer DIIS on
  Preconditioner : FULL_KINETIC        : inversion of T + eS
  Precond_solver : DEFAULT
  stepsize       :    0.15000000                  energy_gap     :    0.20000000
  eps_taylor     :   0.10000E-15                  max_taylor     :             4
  ----------------------------------- OT ---------------------------------------

  Step     Update method      Time    Convergence         Total energy    Change
  ------------------------------------------------------------------------------
     1 OT DIIS     0.15E+00    5.9     0.00004345     -4404.2742311630 -4.40E+03
     2 OT DIIS     0.15E+00    2.8     0.00003610     -4404.2769295844 -2.70E-03
     3 OT DIIS     0.15E+00    2.7     0.00002065     -4404.2820038153 -5.07E-03
     4 OT DIIS     0.15E+00    2.7     0.00001389     -4404.2837670458 -1.76E-03
     5 OT DIIS     0.15E+00    2.8     0.00001002     -4404.2845763288 -8.09E-04
     6 OT DIIS     0.15E+00    2.7     0.00000674     -4404.2851315670 -5.55E-04

  *** SCF run converged in     6 steps ***


  Electronic density on regular grids:      -2047.9999961351        0.0000038649
  Core density on regular grids:             2048.0000000029        0.0000000029
  Total charge density on r-space grids:        0.0000038677
  Total charge density g-space grids:           0.0000038677

  Overlap energy of the core charge distribution:               0.00000165735414
  Self energy of the core charge distribution:             -11221.21997975419799
  Core Hamiltonian energy:                                   3249.23435694875479
  Hartree energy:                                            4618.81085186451674
  Exchange-correlation energy:                              -1051.11036228340345

  Total energy:                                             -4404.28513156697591

 ENERGY| Total FORCE_EVAL ( QS ) energy (a.u.):            -4404.285448850324428


 *******************************************************************************
 ENSEMBLE TYPE                =                                              NVE
 STEP NUMBER                  =                                                9
 TIME [fs]                    =                                         4.500000
 CONSERVED QUANTITY [hartree] =                              -0.440319009309E+04

                                              INSTANTANEOUS             AVERAGES
 CPU TIME [s]                 =                       24.94                46.14
 ENERGY DRIFT PER ATOM [K]    =         -0.108604644855E+03  -0.981178309937E+02
 POTENTIAL ENERGY[hartree]    =         -0.440428544885E+04  -0.440446105387E+04
 KINETIC ENERGY [hartree]     =          0.109535576191E+01   0.126698038781E+01
 TEMPERATURE [K]              =                     300.639              347.745
 *******************************************************************************


 Number of electrons:                                                       2048
 Number of occupied orbitals:                                               1024
 Number of molecular orbitals:                                              1024

 Number of orbital functions:                                              10240
 Number of independent orbital functions:                                  10240

 Extrapolation method: PS Nth order


 SCF WAVEFUNCTION OPTIMIZATION

  ----------------------------------- OT ---------------------------------------
  Minimizer      : DIIS                : direct inversion
                                         in the iterative subspace
                                         using   7 DIIS vectors
                                         safer DIIS on
  Preconditioner : FULL_KINETIC        : inversion of T + eS
  Precond_solver : DEFAULT
  stepsize       :    0.15000000                  energy_gap     :    0.20000000
  eps_taylor     :   0.10000E-15                  max_taylor     :             4
  ----------------------------------- OT ---------------------------------------

  Step     Update method      Time    Convergence         Total energy    Change
  ------------------------------------------------------------------------------
     1 OT DIIS     0.15E+00    6.2     0.00004030     -4404.2213503734 -4.40E+03
     2 OT DIIS     0.15E+00    2.8     0.00003448     -4404.2237068982 -2.36E-03
     3 OT DIIS     0.15E+00    2.8     0.00002012     -4404.2289813594 -5.27E-03
     4 OT DIIS     0.15E+00    2.7     0.00001361     -4404.2308897220 -1.91E-03
     5 OT DIIS     0.15E+00    2.7     0.00000969     -4404.2317585855 -8.69E-04

  *** SCF run converged in     5 steps ***


  Electronic density on regular grids:      -2047.9999962035        0.0000037965
  Core density on regular grids:             2047.9999999969       -0.0000000031
  Total charge density on r-space grids:        0.0000037934
  Total charge density g-space grids:           0.0000037934

  Overlap energy of the core charge distribution:               0.00000155878175
  Self energy of the core charge distribution:             -11221.21997975419799
  Core Hamiltonian energy:                                   3247.42366206562383
  Hartree energy:                                            4620.17894211546081
  Exchange-correlation energy:                              -1050.61438457116651

  Total energy:                                             -4404.23175858549894

 ENERGY| Total FORCE_EVAL ( QS ) energy (a.u.):            -4404.232269158674171


 *******************************************************************************
 ENSEMBLE TYPE                =                                              NVE
 STEP NUMBER                  =                                               10
 TIME [fs]                    =                                         5.000000
 CONSERVED QUANTITY [hartree] =                              -0.440318874489E+04

                                              INSTANTANEOUS             AVERAGES
 CPU TIME [s]                 =                       22.35                43.76
 ENERGY DRIFT PER ATOM [K]    =         -0.108050313546E+03  -0.991110792489E+02
 POTENTIAL ENERGY[hartree]    =         -0.440423226916E+04  -0.440443817540E+04
 KINETIC ENERGY [hartree]     =          0.104352426730E+01   0.124463477576E+01
 TEMPERATURE [K]              =                     286.413              341.612
 *******************************************************************************


 -------------------------------------------------------------------------------
 -                                                                             -
 -                                DBCSR STATISTICS                             -
 -                                                                             -
 -------------------------------------------------------------------------------
 COUNTER                                    TOTAL       BLAS       SMM       ACC
 flops     9 x    32 x    32           3321888768       0.0%    100.0%      0.0%
 flops    22 x    32 x    32           4060086272       0.0%    100.0%      0.0%
 flops     9 x     9 x   128        1430460020736       0.0%    100.0%      0.0%
 flops   128 x   128 x   128        1958505086976       0.0%    100.0%      0.0%
 flops    22 x     9 x   128        1986244964352       0.0%    100.0%      0.0%
 flops     9 x    22 x   128        1992000282624       0.0%    100.0%      0.0%
 flops    22 x    22 x   128        2753956716544       0.0%    100.0%      0.0%
 flops     9 x    32 x     9        6003325476864       0.0%    100.0%      0.0%
 flops     9 x    32 x    22        8382768058368       0.0%    100.0%      0.0%
 flops    22 x    32 x     9        8382768058368       0.0%    100.0%      0.0%
 flops   128 x   128 x  1280        9899899617280       0.0%    100.0%      0.0%
 flops    22 x    32 x    22       11531106926592       0.0%    100.0%      0.0%
 flops  1280 x   128 x   128       12197707120640       0.0%    100.0%      0.0%
 flops  1280 x   128 x  1280       27702539059200       0.0%    100.0%      0.0%
 flops inhomo. stacks                           0       0.0%      0.0%      0.0%
 flops total                        94.228663E+12       0.0%    100.0%      0.0%
 flops max/rank                      1.479973E+12       0.0%    100.0%      0.0%
 matmuls inhomo. stacks                         0       0.0%      0.0%      0.0%
 matmuls total                         3024372216       0.0%    100.0%      0.0%
 number of processed stacks               4571264       0.0%    100.0%      0.0%
 average stack size                                     0.0     661.6       0.0
 marketing flops                   145.646636E+12
 -------------------------------------------------------------------------------
 # multiplications                           2527
 max memory usage/rank             707.694592E+06
 # max total images/rank                        1
 # max 3D layers                                1
 # MPI messages exchanged                 2264192
 MPI messages size (bytes):
  total size                         3.130642E+12
  min size                           0.000000E+00
  max size                          13.107200E+06
  average size                       1.382675E+06
 MPI breakdown and total messages size (bytes):
             size <=      128               14168                        0
       128 < size <=     8192                   0                        0
      8192 < size <=    32768                 616                 20185088
     32768 < size <=   131072             1071616             140458852352
    131072 < size <=  4194304              987840            1294781644800
   4194304 < size <= 16777216              189952            1695381066624
  16777216 < size                               0                        0
 -------------------------------------------------------------------------------
 -                                                                             -
 -                      DBCSR MESSAGE PASSING PERFORMANCE                      -
 -                                                                             -
 -------------------------------------------------------------------------------
 ROUTINE             CALLS      AVE VOLUME [Bytes]
 MP_Group              187
 MP_Bcast               15                     12.
 MP_Allreduce        13458                     37.
 MP_Alltoall          9708                 201466.
 MP_Wait            202160
 MP_ISend            80820                 608006.
 MP_IRecv            80820                 606925.
 MP_Memory           83150
 -------------------------------------------------------------------------------

 MEMORY| Estimated peak process memory [MiB]                                 675

 -------------------------------------------------------------------------------
 -                                                                             -
 -                         MESSAGE PASSING PERFORMANCE                         -
 -                                                                             -
 -------------------------------------------------------------------------------

 ROUTINE             CALLS      AVE VOLUME [Bytes]
 MP_Group                4
 MP_Bcast             4017                  45255.
 MP_Allreduce        10998                    862.
 MP_Sync                87
 MP_Alltoall          1994                3776615.
 MP_ISendRecv        32508                  45472.
 MP_Wait             46496
 MP_comm_split          83
 MP_ISend            11836                 179873.
 MP_IRecv            11836                 179873.
 -------------------------------------------------------------------------------


 -------------------------------------------------------------------------------
 -                                                                             -
 -                           R E F E R E N C E S                               -
 -                                                                             -
 -------------------------------------------------------------------------------
 
 CP2K version 7.1, the CP2K developers group (2019).
 CP2K is freely available from https://www.cp2k.org/ .

 Schuett, Ole; Messmer, Peter; Hutter, Juerg; VandeVondele, Joost. 
 Electronic Structure Calculations on Graphics Processing Units, John
 Wiley & Sons, Ltd, 173-190 (2016). 
 GPU-Accelerated Sparse Matrix-Matrix Multiplication for
 Linear Scaling Density Functional Theory.
 https://dx.doi.org/10.1002/9781118670712.ch8

 Borstnik, U; VandeVondele, J; Weber, V; Hutter, J. 
 PARALLEL COMPUTING, 40 (5-6), 47-58 (2014). 
 Sparse matrix multiplication: The distributed block-compressed sparse
 row library.
 https://dx.doi.org/10.1016/j.parco.2014.03.012

 Hutter, J; Iannuzzi, M; Schiffmann, F; VandeVondele, J. 
 WIREs Comput Mol Sci., 4 (1), 15-25 (2014). 
 CP2K: atomistic simulations of condensed matter systems.
 https://dx.doi.org/10.1002/wcms.1159

 Krack, M. 
 THEORETICAL CHEMISTRY ACCOUNTS, 114 (1-3), 145-152 (2005). 
 Pseudopotentials for H to Kr optimized for gradient-corrected
 exchange-correlation functionals.
 https://dx.doi.org/10.1007/s00214-005-0655-y

 VandeVondele, J; Krack, M; Mohamed, F; Parrinello, M; Chassaing, T;
 Hutter, J. COMPUTER PHYSICS COMMUNICATIONS, 167 (2), 103-128 (2005). 
 QUICKSTEP: Fast and accurate density functional calculations using a
 mixed Gaussian and plane waves approach.
 https://dx.doi.org/10.1016/j.cpc.2004.12.014

 Frigo, M; Johnson, SG. 
 PROCEEDINGS OF THE IEEE, 93 (2), 216-231 (2005). 
 The design and implementation of FFTW3.
 https://dx.doi.org/10.1109/JPROC.2004.840301

 VandeVondele, J; Hutter, J. 
 JOURNAL OF CHEMICAL PHYSICS, 118 (10), 4365-4369 (2003). 
 An efficient orbital transformation method for electronic structure
 calculations.
 https://dx.doi.org/10.1063/1.1543154

 Hartwigsen, C; Goedecker, S; Hutter, J. 
 PHYSICAL REVIEW B, 58 (7), 3641-3662 (1998). 
 Relativistic separable dual-space Gaussian pseudopotentials from H to Rn.
 https://dx.doi.org/10.1103/PhysRevB.58.3641

 Lippert, G; Hutter, J; Parrinello, M. 
 MOLECULAR PHYSICS, 92 (3), 477-487 (1997). 
 A hybrid Gaussian and plane wave density functional scheme.
 https://dx.doi.org/10.1080/002689797170220

 Goedecker, S; Teter, M; Hutter, J. 
 PHYSICAL REVIEW B, 54 (3), 1703-1710 (1996). 
 Separable dual-space Gaussian pseudopotentials.
 https://dx.doi.org/10.1103/PhysRevB.54.1703


 -------------------------------------------------------------------------------
 -                                                                             -
 -                                T I M I N G                                  -
 -                                                                             -
 -------------------------------------------------------------------------------
 SUBROUTINE                       CALLS  ASD         SELF TIME        TOTAL TIME
                                MAXIMUM       AVERAGE  MAXIMUM  AVERAGE  MAXIMUM
 CP2K                                 1  1.0    0.031    0.038  437.868  437.873
 qs_mol_dyn_low                       1  2.0    0.007    0.009  437.590  437.608
 qs_forces                           11  3.9    0.004    0.004  437.476  437.481
 qs_energies                         11  4.9    0.002    0.002  420.236  420.335
 scf_env_do_scf                      11  5.9    0.001    0.002  389.093  389.121
 scf_env_do_scf_inner_loop          118  6.6    0.006    0.011  337.021  337.031
 velocity_verlet                     10  3.0    0.002    0.003  279.364  279.368
 dbcsr_multiply_generic            2527 12.6    0.235    0.259  194.018  196.622
 qs_scf_new_mos                     118  7.6    0.001    0.001  173.863  174.754
 qs_scf_loop_do_ot                  118  8.6    0.001    0.001  173.862  174.753
 ot_scf_mini                        118  9.6    0.004    0.004  159.472  160.677
 multiply_cannon                   2527 13.6    0.530    0.577  149.491  154.212
 rebuild_ks_matrix                  129  8.3    0.001    0.001  114.565  115.785
 qs_ks_build_kohn_sham_matrix       129  9.3    0.021    0.024  114.565  115.784
 qs_ks_update_qs_env                129  7.6    0.001    0.002  102.769  103.911
 multiply_cannon_multrec          20216 14.6   95.956  103.541   95.988  103.573
 ot_mini                            118 10.6    0.002    0.002   99.336  100.739
 qs_rho_update_rho                  129  7.7    0.001    0.002   75.353   76.443
 calculate_rho_elec                 129  8.7   39.355   43.394   75.352   76.442
 sum_up_and_integrate               129 10.3    0.175    0.287   76.073   76.214
 integrate_v_rspace                 129 11.3   45.479   48.820   75.898   76.140
 mp_waitall_1                    236820 15.7   49.656   55.069   49.656   55.069
 init_scf_loop                       11  6.9    0.001    0.001   51.582   51.587
 ot_diis_step                       118 11.6    0.008    0.008   50.118   50.124
 qs_ot_get_derivative               118 11.6    0.002    0.002   48.525   49.773
 apply_preconditioner_dbcsr         129 12.6    0.000    0.001   45.314   46.840
 apply_single                       129 13.6    0.001    0.001   45.313   46.840
 prepare_preconditioner              11  7.9    0.000    0.000   38.266   38.404
 make_preconditioner                 11  8.9    0.000    0.000   38.266   38.404
 make_full_inverse_cholesky          11  9.9    0.000    0.000   35.421   35.668
 density_rs2pw                      129  9.7    0.008    0.009   29.351   33.134
 rs_pw_transfer                    1054 12.0    0.022    0.025   28.197   31.738
 multiply_cannon_metrocomm1       20216 14.6    0.127    0.141   23.953   30.774
 make_m2s                          5054 13.6    0.180    0.203   25.190   26.255
 mp_alltoall_d11v                  2434 14.1   21.495   25.348   21.495   25.348
 rs_distribute_matrix               269 11.0    2.004    2.535   21.351   24.597
 qs_ot_get_p                        129 10.4    0.001    0.001   22.776   24.096
 init_scf_run                        11  5.9    0.000    0.001   23.204   23.208
 scf_env_initial_rho_setup           11  6.9    0.000    0.001   23.204   23.208
 mp_waitany                       11836 13.9   19.451   23.151   19.451   23.151
 qs_ot_get_derivative_diag           77 12.4    0.003    0.003   21.595   22.533
 multiply_cannon_metrocomm3       20216 14.6    0.087    0.098   15.728   22.143
 wfi_extrapolate                     11  7.9    0.001    0.002   20.815   20.815
 pw_transfer                       1559 11.6    0.125    0.162   19.646   20.400
 cp_fm_cholesky_invert               11 10.9   20.333   20.341   20.333   20.341
 make_images                       5054 14.6    0.473    0.511   19.406   20.099
 rs_pw_transfer_RS2PW_140           140 11.5    0.839    0.916   16.549   19.951
 fft_wrap_pw1pw2                   1301 12.7    0.017    0.019   18.984   19.653
 mp_sum_l                         12063 13.6   15.077   19.478   15.077   19.478
 fft_wrap_pw1pw2_140                527 13.2    1.394    1.885   16.607   17.757
 calculate_dm_sparse                129  9.5    0.001    0.001   16.001   16.894
 mp_sum_d                          4491 12.1   12.359   16.606   12.359   16.606
 fft3d_ps                          1301 14.7    6.466    8.191   15.087   16.282
 potential_pw2rs                    129 12.3    0.015    0.017   13.275   13.608
 qs_ks_update_qs_env_forces          11  4.9    0.000    0.000   12.752   12.888
 cp_dbcsr_sm_fm_multiply             37  9.5    0.002    0.003   12.065   12.143
 dbcsr_dot_sd                      1330 12.0    1.286    1.436    9.337   11.951
 qs_ot_get_orbitals                 118 10.6    0.001    0.001   11.526   11.654
 qs_ot_p2m_diag                      83 11.4    0.104    0.120   11.003   11.040
 hybrid_alltoall_any               5240 16.5    1.986    6.475    9.899   11.001
 cp_fm_cholesky_decompose            22 10.9   10.494   10.621   10.494   10.621
 mp_irecv_dv                      49302 15.4    6.662   10.214    6.662   10.214
 make_images_data                  5054 15.6    0.082    0.094    8.794    9.967
 cp_dbcsr_syevd                      83 12.4    0.006    0.006    9.958    9.960
 mp_alltoall_z22v                  1301 16.7    7.020    9.918    7.020    9.918
 cp_fm_syevd                         83 13.4    0.001    0.001    9.614    9.616
 cp_fm_redistribute_end              83 14.4    6.551    9.510    6.571    9.517
 cp_fm_syevd_base                    83 14.4    2.926    9.378    2.926    9.378
 dbcsr_complete_redistribute        395 12.7    4.725    5.470    8.883    9.311
 multiply_cannon_metrocomm4       17689 14.6    0.098    0.111    5.841    9.261
 qs_ot_get_derivative_taylor         41 13.0    0.001    0.002    8.380    8.736
 copy_dbcsr_to_fm                   186 11.8    0.005    0.006    7.935    8.465
 cp_dbcsr_sm_fm_multiply_core        37 10.5    0.000    0.000    8.146    8.445
 make_images_pack                  5054 15.6    7.115    8.089    7.140    8.116
 dbcsr_make_dense_low              6490 15.6    0.074    0.082    6.979    7.793
 make_dense_data                   6490 16.6    6.820    7.619    6.863    7.664
 dbcsr_make_images_dense           4420 14.8    0.058    0.063    5.532    6.272
 mp_allgather_i34                  2527 14.6    3.203    6.232    3.203    6.232
 yz_to_x                            527 15.3    0.453    0.519    4.363    5.890
 copy_fm_to_dbcsr                   209 11.7    0.002    0.003    5.492    5.818
 x_to_yz                            516 15.9    1.010    1.519    4.102    5.226
 make_basis_sm                       11  9.8    0.001    0.001    4.415    4.454
 rs_pw_transfer_PW2RS_140           140 14.0    2.008    2.746    4.112    4.447
 qs_energies_init_hamiltonians       11  5.9    0.001    0.001    4.428    4.429
 make_images_sizes                 5054 15.6    0.007    0.008    2.586    4.399
 mp_alltoall_i44                   5054 16.6    2.579    4.391    2.579    4.391
 dbcsr_desymmetrize_deep            186 12.8    0.197    0.243    3.758    4.222
 reorthogonalize_vectors             10  9.0    0.000    0.000    3.978    4.014
 transfer_dbcsr_to_fm                11 10.9    0.000    0.000    3.822    3.987
 dbcsr_finalize                    6095 13.6    0.038    0.042    3.365    3.777
 dbcsr_merge_all                   3235 14.6    0.764    0.902    3.256    3.666
 cp_dbcsr_plus_fm_fm_t_native        22  8.9    0.001    0.001    3.426    3.559
 qs_energies_compute_matrix_w        11  5.9    0.000    0.000    3.305    3.408
 calculate_w_matrix_ot               11  6.9    0.002    0.003    3.305    3.407
 rs_pw_transfer_RS2PW_50            129 11.7    0.634    0.872    2.407    3.397
 cp_gemm                             81  9.0    0.000    0.001    3.261    3.347
 cp_gemm_fm_gemm                     81 10.0    0.001    0.001    3.261    3.347
 cp_fm_gemm                          81 11.0    3.260    3.346    3.260    3.346
 ot_scf_init                         11  7.9    0.002    0.002    3.207    3.286
 build_core_hamiltonian_matrix_      11  4.9    0.000    0.001    2.691    3.243
 qs_vxc_create                      129 10.3    0.003    0.003    2.781    3.154
 xc_vxc_pw_create                   129 11.3    0.078    0.099    2.779    3.152
 transfer_fm_to_dbcsr                11  9.9    0.000    0.000    2.822    3.115
 mp_alltoall_i22                    718 14.1    2.378    3.095    2.378    3.095
 qs_env_update_s_mstruct             11  6.9    0.000    0.001    2.915    3.085
 buffer_matrices_ensure_size       5054 14.6    2.379    2.762    2.387    2.770
 fft_wrap_pw1pw2_50                 258 14.0    0.078    0.108    1.833    2.573
 rs_pw_transfer_PW2RS_50            129 14.3    0.857    1.151    2.141    2.324
 multiply_cannon_metrocomm2       17689 14.6    0.108    0.125    1.221    2.170
 pw_poisson_solve                   129 10.3    1.054    1.181    2.047    2.049
 build_core_ppl_forces               11  5.9    1.346    1.857    1.346    1.857
 xc_rho_set_and_dset_create         129 12.3    0.004    0.005    1.425    1.822
 mp_bcast_b                        1916 13.7    0.968    1.802    0.968    1.802
 external_control                   128  7.2    0.001    0.014    0.954    1.787
 xc_functional_eval                 129 13.3    1.360    1.766    1.360    1.766
 dbcsr_make_dense                  2070 14.0    0.013    0.016    1.595    1.757
 tree_to_linear_d                  1143 14.7    1.295    1.702    1.295    1.702
 rs_grid_zero                       796 11.5    1.316    1.666    1.316    1.666
 qs_create_task_list                 11  7.9    0.000    0.000    1.630    1.656
 generate_qs_task_list               11  8.9    0.329    0.404    1.630    1.656
 build_core_hamiltonian_matrix       11  6.9    0.001    0.001    1.363    1.653
 calculate_ecore_overlap             22  5.9    0.001    0.001    1.308    1.634
 rs_pw_transfer_PW2RS_20            129 14.3    0.387    0.420    1.321    1.536
 calculate_first_density_matrix       1  7.0    0.000    0.000    1.465    1.476
 dbcsr_copy                        2377 11.8    1.183    1.410    1.234    1.465
 arnoldi_extremal                   129 11.4    0.003    0.003    1.190    1.462
 arnoldi_normal_ev                  129 12.4    0.003    0.004    1.187    1.459
 pw_gather_p                        656 14.2    1.259    1.449    1.259    1.449
 calculate_rho_core                  11  7.9    0.029    0.033    1.249    1.430
 distribute_tasks                    11  9.9    0.098    0.110    1.301    1.347
 pw_scatter_p                       645 15.2    1.122    1.304    1.122    1.304
 rs_pw_transfer_RS2PW_20            129 11.7    0.271    0.293    1.131    1.211
 pw_copy                           1032 12.7    0.951    1.207    0.951    1.207
 arnoldi_init                       129 13.4    0.002    0.003    0.858    1.131
 dbcsr_data_copy_aa2               1332 14.1    0.938    1.056    0.938    1.056
 cp_fm_upper_to_full                 22 12.4    0.800    1.018    0.800    1.018
 build_core_ppl                      11  7.9    0.801    0.987    0.801    0.987
 dbcsr_add_d                       1795 12.8    0.004    0.004    0.821    0.974
 evaluate_core_matrix_traces        129  8.3    0.001    0.001    0.954    0.973
 calculate_ptrace_kp                258  9.3    0.001    0.001    0.953    0.972
 dbcsr_add_anytype                 1795 13.8    0.675    0.813    0.817    0.970
 dbcsr_new_transposed              1146 13.5    0.029    0.033    0.711    0.884
 dbcsr_redistribute                 137 14.6    0.045    0.050    0.650    0.822
 mp_sum_iv                          494 12.4    0.578    0.800    0.578    0.800
 load_balance_distributed            22 10.9    0.000    0.000    0.748    0.792
 dbcsr_make_undense                2070 14.0    0.666    0.735    0.703    0.774
 mp_sum_dm                          460  4.9    0.616    0.768    0.616    0.768
 dbcsr_add_wm_from_matrix           483 12.9    0.002    0.003    0.677    0.749
 dbcsr_fill_wm_from_matrix          483 13.9    0.666    0.737    0.669    0.740
 build_core_ppnl_forces              11  5.9    0.645    0.730    0.645    0.730
 get_current_loads                  132 11.9    0.285    0.356    0.644    0.717
 compute_load_list                   44 11.9    0.368    0.462    0.664    0.703
 build_kinetic_matrix                22  6.9    0.497    0.588    0.524    0.617
 dbcsr_matrix_vector_mult          1838 14.1    0.012    0.014    0.545    0.614
 build_overlap_matrix                22  6.9    0.475    0.560    0.510    0.590
 pw_axpy                            645 10.6    0.391    0.508    0.391    0.508
 dbcsr_make_untransposed_blocks    3010 13.5    0.378    0.472    0.390    0.486
 fft_wrap_pw1pw2_20                 258 14.0    0.022    0.028    0.390    0.482
 mp_alltoall_l                      143 12.8    0.369    0.468    0.369    0.468
 mp_sum_dv                         7152 15.3    0.288    0.461    0.288    0.461
 copy_fm_to_dbcsr_bc                209 12.7    0.268    0.332    0.387    0.460
 mp_isendrecv_dv                  32508 14.0    0.232    0.458    0.232    0.458
 copy_dbcsr_to_fm_bc                186 12.8    0.378    0.453    0.379    0.454
 mp_irecv_dm3                      3228 13.9    0.253    0.419    0.253    0.419
 integrate_v_core_rspace             11  7.9    0.036    0.050    0.363    0.413
 setup_rec_index_2d                5054 14.6    0.334    0.408    0.334    0.408
 rs_pw_transfer_PW2RS_10            129 14.3    0.068    0.085    0.303    0.386
 mp_alltoall_i11v                  1782 14.2    0.313    0.375    0.313    0.375
 dbcsr_set                         4538 15.0    0.005    0.005    0.301    0.349
 dbcsr_zero                        4692 16.0    0.300    0.348    0.300    0.348
 dbcsr_create_new                 28688 14.9    0.132    0.147    0.291    0.347
 cp_fm_triangular_multiply           11 10.8    0.319    0.337    0.319    0.337
 mp_isend_dv                      49302 15.4    0.225    0.321    0.225    0.321
 build_subspace                     129 13.4    0.008    0.009    0.297    0.298
 dbcsr_reserve_blocks               813 14.5    0.226    0.284    0.239    0.297
 dbcsr_special_finalize            5054 15.6    0.015    0.020    0.259    0.291
 quick_finalize                    7572 16.0    0.051    0.058    0.263    0.287
 dbcsr_sort_indices               12923 16.4    0.246    0.267    0.246    0.267
 dbcsr_destroy                    27540 14.2    0.075    0.084    0.171    0.264
 dbcsr_col_vec_to_rep_row          1838 15.1    0.007    0.011    0.188    0.263
 rs_pw_transfer_RS2PW_10            129 11.7    0.058    0.068    0.213    0.263
 dbcsr_data_release              155872 16.1    0.099    0.113    0.149    0.247
 dbcsr_data_new                   83122 15.7    0.108    0.178    0.176    0.246
 mp_bcast_dv                       1921 16.1    0.167    0.239    0.167    0.239
 merge_index                       3235 15.6    0.217    0.237    0.217    0.237
 qs_ot_p2m_taylor                    46 11.5    0.000    0.001    0.209    0.221
 cp_fm_create                       457 12.7    0.175    0.218    0.175    0.218
 build_core_ppnl                     11  7.9    0.173    0.210    0.173    0.210
 cp_dbcsr_cholesky_decompose         11 12.9    0.045    0.045    0.155    0.191
 cp_dbcsr_alloc_block_from_nbl       88  7.7    0.030    0.040    0.155    0.190
 pw_zero                            129 10.7    0.140    0.183    0.140    0.183
 dbcsr_mm_multrec_init             2527 14.6    0.009    0.010    0.150    0.169
 setup_buffer_matrices             5054 14.6    0.024    0.028    0.102    0.160
 dbcsr_mm_csr_init                 2527 15.6    0.082    0.093    0.141    0.159
 cp_fm_redistribute_start            83 14.4    0.090    0.119    0.117    0.159
 dbcsr_reserve_all_blocks           725 14.2    0.003    0.003    0.117    0.158
 mp_irecv_iv                      45442 15.7    0.095    0.157    0.095    0.157
 load_balance_replicated             11 10.9    0.005    0.016    0.141    0.153
 mp_isend_iv                      45442 15.7    0.098    0.146    0.098    0.146
 mp_deallocate_d                  19910 17.3    0.055    0.146    0.055    0.146
 qs_init_subsys                       1  2.0    0.004    0.005    0.145    0.145
 fft_wrap_pw1pw2_10                 258 14.0    0.004    0.005    0.137    0.144
 mp_cart_create                     191 13.6    0.116    0.140    0.116    0.140
 qs_env_setup                         1  3.0    0.001    0.007    0.134    0.135
 build_qs_neighbor_lists             11  6.9    0.001    0.001    0.106    0.131
 qs_env_rebuild_pw_env               23  5.3    0.000    0.001    0.126    0.127
 pw_env_rebuild                       1  5.0    0.001    0.001    0.126    0.127
 mp_allocate_d                    19910 17.3    0.071    0.125    0.071    0.125
 dbcsr_matrix_vector_mult_local    1838 15.1    0.107    0.118    0.111    0.123
 dbcsr_cholesky_invert               11 12.9    0.078    0.080    0.122    0.123
 cp_fm_init_random                    1  8.0    0.093    0.105    0.094    0.105
 optimize_load_list                  22 11.9    0.000    0.000    0.083    0.103
 create_local_tasks                  11 10.9    0.043    0.057    0.101    0.103
 mp_bcast_i3                         22 12.9    0.067    0.103    0.067    0.103
 dbcsr_scale_anytype               2043 14.7    0.071    0.099    0.073    0.102
 dbcsr_scale_d                      248 13.5    0.001    0.001    0.072    0.101
 md_output                           10  3.0    0.001    0.001    0.009    0.099
 md_write_output                     11  3.9    0.001    0.055    0.003    0.096
 pw_grid_setup                        4  6.0    0.000    0.000    0.090    0.090
 pw_grid_setup_internal               4  7.0    0.003    0.004    0.090    0.090
 update_particle_set                 20  4.0    0.000    0.000    0.087    0.089
 mp_alltoall_z11v                   258 17.0    0.076    0.085    0.076    0.085
 dbcsr_make_index_exist           28688 15.9    0.057    0.062    0.078    0.083
 dbcsr_iterator_start             35857 15.9    0.052    0.057    0.072    0.078
 mp_sum_root_iv                      22 12.9    0.013    0.077    0.013    0.077
 dbcsr_iterator_stop              35857 15.9    0.047    0.053    0.062    0.068
 pw_grid_sort                         4  8.0    0.026    0.033    0.052    0.064
 yz_to_xz                           129 17.3    0.007    0.007    0.056    0.063
 dbcsr_work_create                10787 14.7    0.040    0.044    0.056    0.062
 dbcsr_switch_data_area           18055 16.3    0.021    0.028    0.050    0.062
 fill_hash_tables                  2527 16.6    0.053    0.061    0.053    0.061
 qs_scf_ensure_work_matrices         11  5.9    0.000    0.000    0.044    0.061
 dbcsr_distribution_new           13914 14.1    0.052    0.054    0.052    0.054
 wfs_update                          11  5.9    0.001    0.001    0.040    0.052
 dbcsr_make_dists_dense            2210 13.8    0.039    0.040    0.050    0.051
 Gram_Schmidt_ortho_d              1709 14.1    0.002    0.006    0.032    0.051
 create_qs_kind_set                   1  2.0    0.000    0.000    0.043    0.051
 read_qs_kind                         2  3.0    0.018    0.022    0.043    0.050
 build_neighbor_lists_sac_ppl        11  7.9    0.038    0.047    0.038    0.047
 qs_env_rebuild_rho                  11  7.9    0.000    0.000    0.035    0.047
 qs_rho_rebuild                      11  8.9    0.000    0.000    0.035    0.047
 cp_fm_to_fm_matrix                  21  7.9    0.032    0.043    0.032    0.043
 write_trajectory                    44  4.9    0.001    0.012    0.001    0.041
 cp_fm_scale_and_add                 24  9.0    0.016    0.038    0.016    0.038
 mp_deallocate_i                  21676 16.7    0.033    0.038    0.033    0.038
 mp_allocate_i                    21676 17.0    0.032    0.036    0.032    0.036
 dbcsr_mm_multrec_finalize         2527 15.6    0.030    0.035    0.032    0.036
 mp_sum_b                          4453 13.8    0.036    0.036    0.036    0.036
 parser_read_line                  2169  4.0    0.001    0.001    0.025    0.035
 parser_read_line_low                 4  5.0    0.006    0.014    0.024    0.034
 xz_to_yz                           129 14.7    0.005    0.006    0.033    0.034
 pw_grid_remap                        4  8.0    0.002    0.003    0.017    0.033
 build_neighbor_lists_sap_ppnl       11  7.9    0.025    0.033    0.025    0.033
 dbcsr_scale_by_vector_anytype      284 11.6    0.029    0.031    0.030    0.033
 dbcsr_make_index_list             5054 14.6    0.026    0.032    0.026    0.032
 dbcsr_work_destroy_all           10787 15.6    0.023    0.025    0.029    0.032
 mp_sum_im3                           4  9.0    0.015    0.032    0.015    0.032
 sort_shells                          4  9.0    0.027    0.032    0.027    0.032
 broadcast_input_information          4  6.0    0.000    0.000    0.019    0.031
 dbcsr_copy_into_existing            22  7.9    0.025    0.030    0.025    0.030
 dbcsr_make_dbcsr_index           13026 16.3    0.027    0.029    0.027    0.029
 write_particle_coordinates          11  5.9    0.000    0.029    0.000    0.029
 mp_alltoall_l11v                    11 11.9    0.027    0.029    0.027    0.029
 mp_isend_dm3                      3228 13.9    0.024    0.029    0.024    0.029
 mp_bcast_i                         101  2.8    0.011    0.028    0.011    0.028
 compute_max_radius                   1  6.0    0.022    0.028    0.022    0.028
 topology_control                     1  2.0    0.001    0.002    0.023    0.027
 pw_scale                           129 10.3    0.022    0.026    0.022    0.026
 make_full_kinetic                   11  9.9    0.000    0.000    0.023    0.026
 dbcsr_get_data_size_used          5733 14.8    0.022    0.025    0.022    0.025
 mp_cart_sub                        375 13.7    0.025    0.025    0.025    0.025
 mp_rank_compare                   1301 15.7    0.019    0.023    0.019    0.023
 dbcsr_iterator_seek              35857 16.9    0.020    0.023    0.020    0.023
 build_neighbor_lists_sab_all        11  7.9    0.018    0.022    0.018    0.022
 mp_max_l                            22  1.8    0.018    0.020    0.018    0.020
 compute_evals                      129 13.4    0.017    0.020    0.017    0.020
 build_neighbor_lists_sab_orb        11  7.9    0.016    0.019    0.016    0.019
 mp_comm_split                       83 15.4    0.017    0.019    0.018    0.019
 transpose_index_local             1146 14.5    0.005    0.006    0.018    0.019
 get_fft_scratch                   1302 15.7    0.013    0.017    0.013    0.017
 dbcsr_gershgorin_norm               47 11.0    0.001    0.002    0.014    0.017
 cube_transpose_2                   129 14.7    0.002    0.002    0.013    0.016
 dbcsr_hadamard_product             154 13.4    0.009    0.010    0.015    0.016
 DGKS_ortho_d                      1709 14.1    0.002    0.004    0.011    0.014
 write_restart                       10  4.0    0.000    0.009    0.006    0.014
 calculate_atomic_block_dm            1  8.0    0.002    0.002    0.013    0.013
 connectivity_control                 1  3.0    0.000    0.001    0.010    0.012
 mp_bcast_am                          4  7.0    0.008    0.012    0.008    0.012
 mp_sync                             87 14.3    0.008    0.012    0.008    0.012
 rs_grid_create_descriptor            4  6.0    0.000    0.000    0.008    0.012
 dbcsr_get_local_rows              4597 14.2    0.011    0.011    0.011    0.011
 create_fast_row_vec_access        1838 15.1    0.002    0.002    0.010    0.011
 pw_grid_assign                       4  8.0    0.009    0.011    0.011    0.011
 topology_generate_bond               1  4.0    0.000    0.000    0.009    0.011
 mp_comm_compare                   1304 15.7    0.010    0.011    0.010    0.011
 coordinate_control                   1  3.0    0.000    0.000    0.007    0.011
 coordinate_control_READ_COORDI       1  4.0    0.000    0.000    0.007    0.011
 dbcsr_get_local_cols              4597 14.2    0.009    0.011    0.009    0.011
 read_atoms_input                     1  5.0    0.007    0.010    0.007    0.010
 create_fast_col_vec_access        1838 15.1    0.002    0.002    0.009    0.010
 update_input                         1  5.0    0.000    0.000    0.005    0.010
 update_subsys                        1  6.0    0.000    0.000    0.005    0.010
 mp_environ_l                      1964 14.5    0.008    0.009    0.008    0.009
 create_fast_row_vec_access_d      1838 16.1    0.004    0.005    0.008    0.009
 section_coord_val_set                1  7.0    0.005    0.009    0.005    0.009
 cube_transpose_1                   129 17.3    0.001    0.002    0.008    0.009
 dbcsr_index_prune_deleted         4420 15.8    0.008    0.009    0.008    0.009
 fft3d_s                              1  2.0    0.000    0.000    0.006    0.009
 create_fast_col_vec_access_d      1838 16.1    0.004    0.004    0.008    0.009
 build_neighbor_lists_sab_core       11  7.9    0.007    0.008    0.007    0.008
 mp_maxloc_dv                      1121  1.0    0.007    0.008    0.007    0.008
 mp_bcast_im                        130 14.4    0.006    0.008    0.006    0.008
 pw_pool_create_pw                 2616 11.8    0.004    0.006    0.006    0.008
 mp_comm_free                       655 13.7    0.006    0.008    0.006    0.008
 dbcsr_mm_sched_init               2527 16.6    0.004    0.005    0.006    0.007
 dbcsr_make_index_local_row        5054 14.6    0.006    0.007    0.006    0.007
 mp_bcast_av                        560  1.0    0.002    0.002    0.006    0.006
 create_col_vec_from_matrix         258 13.4    0.001    0.001    0.004    0.006
 mpools_rebuild_fm_pools              1  4.0    0.000    0.000    0.006    0.006
 topology_generate_bond_3             1  5.0    0.000    0.000    0.005    0.006
 build_fist_neighbor_lists            1  6.0    0.000    0.000    0.005    0.006
 pw_pool_give_back_pw              3107 12.0    0.004    0.006    0.004    0.006
 build_neighbor_lists                 1  7.0    0.005    0.006    0.005    0.006
 mp_comm_dup                          8  6.5    0.004    0.005    0.004    0.005
 dbcsr_get_global_row_map          2527 13.6    0.004    0.005    0.004    0.005
 mp_environ_c                      1302 15.7    0.004    0.005    0.004    0.005
 mp_max_i                           387  1.6    0.003    0.005    0.003    0.005
 pw_grid_distribute                   4  8.0    0.003    0.004    0.004    0.005
 scf_post_calculation_gpw            11  5.9    0.001    0.001    0.003    0.004
 read_qs_section                      1  3.0    0.003    0.004    0.003    0.004
 create_replicated_col_vec_from     129 13.4    0.001    0.001    0.002    0.004
 cleanup_scf_loop                    11  7.9    0.000    0.001    0.003    0.004
 restraint_control                   11  3.9    0.000    0.000    0.004    0.004
 mp_allgather_l                     143 12.8    0.004    0.004    0.004    0.004
 topology_generate_bond_4             1  5.0    0.002    0.003    0.003    0.004
 dbcsr_get_global_col_map          2527 13.6    0.003    0.004    0.003    0.004
 mp_sum_partial_im                   22 12.9    0.002    0.004    0.002    0.004
 write_mo_set_to_restart            118  7.6    0.003    0.004    0.003    0.004
 dbcsr_finalize_lib                   1  2.0    0.000    0.004    0.000    0.004
 pw_poisson_rebuild                 129 11.3    0.002    0.004    0.002    0.004
 dbcsr_add_on_diag                   92 12.5    0.000    0.001    0.002    0.004
 topology_connectivity_pack           1  3.0    0.000    0.000    0.003    0.004
 scf_c_write_parameters               1  3.0    0.000    0.004    0.000    0.004
 write_qs_control                     1  3.0    0.003    0.003    0.003    0.003
 ot_scf_read_input                   11  7.9    0.000    0.001    0.001    0.003
 mp_bcast_iv                         23  3.9    0.002    0.003    0.002    0.003
 cp_fm_release                      462 12.5    0.001    0.003    0.001    0.003
 qs_scf_loop_print                  118  7.6    0.003    0.003    0.003    0.003
 calculate_atom                       2  9.0    0.000    0.000    0.002    0.003
 pw_create                          412 12.9    0.002    0.003    0.002    0.003
 rot_ana                              1  3.0    0.000    0.000    0.001    0.003
 write_available_results             11  6.9    0.000    0.000    0.002    0.003
 calculate_atom_restricted            2 10.0    0.002    0.002    0.002    0.003
 ot_readwrite_input                  11  8.9    0.000    0.003    0.000    0.003
 mp_sum_i                            13  5.4    0.002    0.003    0.002    0.003
 diamat_all                           1  4.0    0.001    0.003    0.001    0.003
 qs_ks_did_change                   140  7.7    0.000    0.000    0.000    0.002
 mp_sum_im                           88 14.0    0.002    0.002    0.002    0.002
 init_cube_info                       4  6.0    0.002    0.002    0.002    0.002
 dbcsr_mm_sched_finalize           2527 16.6    0.002    0.002    0.002    0.002
 cp_fm_scale                         10  9.0    0.002    0.002    0.002    0.002
 create_replicated_row_vec_from     129 13.4    0.000    0.001    0.002    0.002
 create_local_fixd_list              11  4.9    0.002    0.002    0.002    0.002
 write_mo_free_results               11  7.9    0.001    0.001    0.001    0.002
 fix_atom_control                    11  3.9    0.002    0.002    0.002    0.002
 dbcsr_mm_hostdrv_init             2527 17.6    0.001    0.002    0.001    0.002
 qs_scf_ensure_mos                   11  5.9    0.000    0.000    0.001    0.002
 topology_coordinate_pack             1  3.0    0.000    0.000    0.001    0.002
 init_qs_kind_set                     1  3.0    0.000    0.000    0.001    0.001
 init_qs_kind                         2  4.0    0.000    0.000    0.001    0.001
 init_orb_basis_set                   2  5.0    0.000    0.000    0.001    0.001
 init_cphi_and_sphi                   2  6.0    0.001    0.001    0.001    0.001
 calculate_atom_vxc_lda              10 11.0    0.001    0.001    0.001    0.001
 rs_grid_create                      26  9.3    0.000    0.001    0.000    0.001
 atom_int_setup                       2  9.0    0.000    0.001    0.000    0.001
 topology_coordinate_pack_11          1  4.0    0.000    0.001    0.000    0.001
 atom_ppint_setup                     2  9.0    0.000    0.001    0.000    0.001
 release_fast_vec_access           3676 15.1    0.001    0.001    0.001    0.001
 balance_global_list                 22 12.9    0.000    0.001    0.000    0.001
 qs_efield_local_operator           129 10.3    0.001    0.001    0.001    0.001
 create_destination_list             22 11.9    0.001    0.001    0.001    0.001
 cp_fm_set_all                        1  8.0    0.001    0.001    0.001    0.001
 topology_connectivity_pack_2         1  4.0    0.001    0.001    0.001    0.001
 set_mo_occupation_1                130  9.4    0.001    0.001    0.001    0.001
 check_generate_mol                   1  6.0    0.001    0.001    0.001    0.001
 topology_generate_bond_1             1  5.0    0.001    0.001    0.001    0.001
 write_mo_dependent_results          11  7.9    0.001    0.001    0.001    0.001
 setup_velocities                     1  3.0    0.000    0.000    0.001    0.001
 initialize_velocities                1  4.0    0.001    0.001    0.001    0.001
 qs_scf_print_scf_summary            11  7.9    0.000    0.001    0.000    0.001
 pw_grid_allocate                     4  8.0    0.000    0.001    0.000    0.001
 distribute_molecules_2d              1  4.0    0.001    0.001    0.001    0.001
 mp_sum_lv                           20  3.2    0.000    0.001    0.000    0.001
 distribute_molecules_1d              1  3.0    0.001    0.001    0.001    0.001
 connectivity_control_check_ele       1  4.0    0.000    0.001    0.000    0.001
 qs_efield_berry_phase              129 10.3    0.001    0.001    0.001    0.001
 dump_info_core_hamiltonian          22  6.9    0.000    0.001    0.000    0.001
 scf_c_read_parameters                1  3.0    0.000    0.001    0.000    0.001
 topology_connectivity_pack_4         1  4.0    0.000    0.000    0.000    0.000
 topology_generate_onfo               1  4.0    0.000    0.000    0.000    0.000
 scf_c_create                         1  3.0    0.000    0.000    0.000    0.000
 -------------------------------------------------------------------------------

 The number of warnings for this run is : 1
 
 -------------------------------------------------------------------------------
  **** **** ******  **  PROGRAM ENDED AT                 2020-09-10 19:59:49.653
 ***** ** ***  *** **   PROGRAM RAN ON                         openhpc-compute-2
 **    ****   ******    PROGRAM RAN BY                                    steveb
 ***** **    ** ** **   PROGRAM PROCESS ID                                  8372
  **** **  *******  **  PROGRAM STOPPED IN /alaska/steveb/hpc-tests/stage/alaska
                                           /ib-gcc9-openmpi4-ucx/cp2k/Cp2k_H2O_2
                                           56_2
