 +-------------------------------------------------+
 |                                                 |
 |      CCC   AA    SSS  TTTTT  EEEEE  PPPP        |
 |     C     A  A  S       T    E      P   P       |
 |     C     AAAA   SS     T    EEE    PPPP        |
 |     C     A  A     S    T    E      P           |
 |      CCC  A  A  SSS     T    EEEEE  P           |
 |                                                 |
 +-------------------------------------------------+
 |                                                 |
 | Welcome to Academic Release CASTEP version 17.21|          
 | Ab Initio Total Energy Program                  |
 |                                                 |
 | Authors:                                        |
 | M. Segall, M. Probert, C. Pickard, P. Hasnip,   |
 | S. Clark, K. Refson, J. R. Yates, M. Payne      |
 |                                                 |
 | Contributors:                                   |
 | P. Lindan, P. Haynes, J. White, V. Milman,      |
 | N. Govind, M. Gibson, P. Tulip, V. Cocula,      |
 | B. Montanari, D. Quigley, M. Glover,            |
 | L. Bernasconi, A. Perlov, M. Plummer,           |
 | E. McNellis, J. Meyer, J. Gale, D. Jochym       |
 | J. Aarons, B. Walker, R. Gillen, D. Jones       |
 | T. Green, I. J. Bush, C. J. Armstrong,          |
 | E. J. Higgins, E. L. Brown, M. S. McFly,        |
 | J. Wilkins, B-C. Shih, P. J. P. Byrne           |
 |                                                 |
 | Copyright (c) 2000 - 2017                       |
 |                                                 |
 |     Distributed under the terms of an           |
 |     Agreement between the United Kingdom        |
 |     Car-Parrinello (UKCP) Consortium,           |
 |     Daresbury Laboratory and Accelrys, Inc.     |
 |                                                 |
 | Please cite                                     |
 |                                                 |
 |     "First principles methods using CASTEP"     |
 |                                                 |
 |         Zeitschrift fuer Kristallographie       |
 |           220(5-6) pp. 567-570 (2005)           |
 |                                                 |
 | S. J. Clark, M. D. Segall, C. J. Pickard,       |
 | P. J. Hasnip, M. J. Probert, K. Refson,         |
 | M. C. Payne                                     |
 |                                                 |
 |       in all publications arising from          |
 |              your use of CASTEP                 |
 |                                                 |
 +-------------------------------------------------+
 
 
 Compiled for linux_x86_64_ifort17 on Fri, 08 Dec 2017 17:04:03 +0000
 from code version 
 056e886bd5a1+ Castep172_branch Mon, 15 May 2017 14:45:35 +0100
 Compiler: Intel Fortran 17.0.4.196; Optimisation: fast
 MATHLIBS: Intel MKL(2017.0.3) (LAPACK version 3.7.0)
 FFT Lib : mkl
 Fundamental constants values: CODATA 2010
 
 Run started: Thu, 15 Oct 2020 09:20:32 +0100
 
 Pseudo atomic calculation performed for O 2s2 2p4
 
 Converged in 13 iterations to a total energy of -430.9846 eV
 
 
 Pseudo atomic calculation performed for Al 3s2 3p1
 
 Converged in 14 iterations to a total energy of -53.3906 eV
 
 Calculation parallelised over 3136 processes.
 Data is distributed by G-vector(1568-way) and k-point(2-way)

 ************************************ Title ************************************
 3x3 sapphire surface benchmark (v1.1)

 ***************************** General Parameters ******************************
  
 output verbosity                               : normal  (1)
 write checkpoint data to                       : al3x3.check
 type of calculation                            : single point energy
 stress calculation                             : off
 density difference calculation                 : off
 electron localisation func (ELF) calculation   : off
 Hirshfeld analysis                             : off
 unlimited duration calculation
 timing information                             : on
 memory usage estimate                          : on
 write final potential to formatted file        : off
 write final density to formatted file          : off
 write BibTeX reference list                    : on
 write OTFG pseudopotential files               : on
 write electrostatic potential file             : on
 write bands file                               : on
 checkpoint writing                             : both castep_bin and check files
  
 output         length unit                     : A
 output           mass unit                     : amu
 output           time unit                     : ps
 output         charge unit                     : e
 output           spin unit                     : hbar/2
 output         energy unit                     : eV
 output          force unit                     : eV/A
 output       velocity unit                     : A/ps
 output       pressure unit                     : GPa
 output     inv_length unit                     : 1/A
 output      frequency unit                     : cm-1
 output force constant unit                     : eV/A**2
 output         volume unit                     : A**3
 output   IR intensity unit                     : (D/A)**2/amu
 output         dipole unit                     : D
 output         efield unit                     : eV/A/e
 output        entropy unit                     : J/mol/K
  
 wavefunctions paging                           : none
 random number generator seed                   :          1
 data distribution                              : optimal for this architecture
 optimization strategy                          : maximize speed(+++)

 *********************** Exchange-Correlation Parameters ***********************
  
 using functional                               : Perdew Wang (1991)
 relativistic treatment                         : Koelling-Harmon
 DFT+D: Semi-empirical dispersion correction    : off

 ************************* Pseudopotential Parameters **************************
  
 pseudopotential representation                 : reciprocal space
 <beta|phi> representation                      : reciprocal space
 spin-orbit coupling                            : off

 **************************** Basis Set Parameters *****************************
  
 plane wave basis set cut-off                   :   400.0000   eV
 size of standard grid                          :     1.7500
 size of   fine   gmax                          :    17.9311   1/A
 finite basis set correction                    : none

 **************************** Electronic Parameters ****************************
  
 number of  electrons                           :  1296.    
 net charge of system                           :  0.000    
 treating system as non-spin-polarized
 number of bands                                :        768

 ********************* Electronic Minimization Parameters **********************
  
 Method: Treating system as metallic with density mixing treatment of electrons,
         and number of  SD  steps               :          1
         and number of  CG  steps               :          4
  
 total energy / atom convergence tol.           : 0.1500E-01   eV
 eigen-energy convergence tolerance             : 0.1000E-05   eV
 max force / atom convergence tol.              : ignored
 convergence tolerance window                   :          3   cycles
 max. number of SCF cycles                      :         40
 smearing scheme                                : Gaussian
 smearing width                                 : 0.1000       eV
 Fermi energy convergence tolerance             : 0.2721E-13   eV
 periodic dipole correction                     : NONE

 ************************** Density Mixing Parameters **************************
  
 density-mixing scheme                          : Pulay
 max. length of mixing history                  :         20
 charge density mixing amplitude                : 0.8000    
 cut-off energy for mixing                      :  400.0       eV

 *******************************************************************************
  
 
                           -------------------------------
                                      Unit Cell
                           -------------------------------
        Real Lattice(A)                      Reciprocal Lattice(1/A)
  12.3642447  -7.1385000   0.0000000        0.5081738   0.0000000   0.0000000
   0.0000000  14.2770000   0.0000000        0.2540869   0.4400914   0.0000000
   0.0000000   0.0000000  27.5000000        0.0000000   0.0000000   0.2284795
 
                       Lattice parameters(A)       Cell Angles
                    a =   14.277000          alpha =   90.000000
                    b =   14.277000          beta  =   90.000000
                    c =   27.500000          gamma =  120.000000
 
                       Current cell volume = 4854.418839       A**3
                                   density =    1.134206   AMU/A**3
                                           =    1.883393     g/cm^3
 
                           -------------------------------
                                     Cell Contents
                           -------------------------------
                         Total number of ions in cell =  270
                      Total number of species in cell =    2
                        Max number of any one species =  162
 
            xxxxxxxxxxxxxxxxxxxxxxxxxxxxxxxxxxxxxxxxxxxxxxxxxxxxxxxxxxxx
            x  Element    Atom        Fractional coordinates of atoms  x
            x            Number           u          v          w      x
            x----------------------------------------------------------x
            x  O            1         0.102000   0.000000   0.645700   x 
            x  O            2         0.000000   0.102000   0.645700   x 
            x  O            3         0.231333   0.231333   0.645700   x 
            x  O            4         0.009111   0.222222   0.724433   x 
            x  O            5         0.111111   0.120222   0.724433   x 
            x  O            6         0.213111   0.324222   0.724433   x 
            x  O            7         0.120222   0.111111   0.566967   x 
            x  O            8         0.222222   0.009111   0.566967   x 
            x  O            9         0.324222   0.213111   0.566967   x 
            x  O           10         0.324222   0.111111   0.803167   x 
            x  O           11         0.222222   0.213111   0.803167   x 
            x  O           12         0.120222   0.009111   0.803167   x 
            x  O           13         0.213111   0.222222   0.960633   x 
            x  O           14         0.111111   0.324222   0.960633   x 
            x  O           15         0.009111   0.120222   0.960633   x 
            x  O           16         0.231333   0.000000   0.881900   x 
            x  O           17         0.000000   0.231333   0.881900   x 
            x  O           18         0.102000   0.102000   0.881900   x 
            x  O           19         0.102000   0.333333   0.645700   x 
            x  O           20         0.000000   0.435333   0.645700   x 
            x  O           21         0.231333   0.564667   0.645700   x 
            x  O           22         0.009111   0.555556   0.724433   x 
            x  O           23         0.111111   0.453556   0.724433   x 
            x  O           24         0.213111   0.657556   0.724433   x 
            x  O           25         0.120222   0.444444   0.566967   x 
            x  O           26         0.222222   0.342444   0.566967   x 
            x  O           27         0.324222   0.546444   0.566967   x 
            x  O           28         0.324222   0.444444   0.803167   x 
            x  O           29         0.222222   0.546444   0.803167   x 
            x  O           30         0.120222   0.342444   0.803167   x 
            x  O           31         0.213111   0.555556   0.960633   x 
            x  O           32         0.111111   0.657556   0.960633   x 
            x  O           33         0.009111   0.453556   0.960633   x 
            x  O           34         0.231333   0.333333   0.881900   x 
            x  O           35         0.000000   0.564667   0.881900   x 
            x  O           36         0.102000   0.435333   0.881900   x 
            x  O           37         0.102000   0.666667   0.645700   x 
            x  O           38         0.000000   0.768667   0.645700   x 
            x  O           39         0.231333   0.898000   0.645700   x 
            x  O           40         0.009111   0.888889   0.724433   x 
            x  O           41         0.111111   0.786889   0.724433   x 
            x  O           42         0.213111   0.990889   0.724433   x 
            x  O           43         0.120222   0.777778   0.566967   x 
            x  O           44         0.222222   0.675778   0.566967   x 
            x  O           45         0.324222   0.879778   0.566967   x 
            x  O           46         0.324222   0.777778   0.803167   x 
            x  O           47         0.222222   0.879778   0.803167   x 
            x  O           48         0.120222   0.675778   0.803167   x 
            x  O           49         0.213111   0.888889   0.960633   x 
            x  O           50         0.111111   0.990889   0.960633   x 
            x  O           51         0.009111   0.786889   0.960633   x 
            x  O           52         0.231333   0.666667   0.881900   x 
            x  O           53         0.000000   0.898000   0.881900   x 
            x  O           54         0.102000   0.768667   0.881900   x 
            x  O           55         0.435333   0.000000   0.645700   x 
            x  O           56         0.333333   0.102000   0.645700   x 
            x  O           57         0.564667   0.231333   0.645700   x 
            x  O           58         0.342444   0.222222   0.724433   x 
            x  O           59         0.444444   0.120222   0.724433   x 
            x  O           60         0.546444   0.324222   0.724433   x 
            x  O           61         0.453556   0.111111   0.566967   x 
            x  O           62         0.555556   0.009111   0.566967   x 
            x  O           63         0.657556   0.213111   0.566967   x 
            x  O           64         0.657556   0.111111   0.803167   x 
            x  O           65         0.555556   0.213111   0.803167   x 
            x  O           66         0.453556   0.009111   0.803167   x 
            x  O           67         0.546444   0.222222   0.960633   x 
            x  O           68         0.444444   0.324222   0.960633   x 
            x  O           69         0.342444   0.120222   0.960633   x 
            x  O           70         0.564667   0.000000   0.881900   x 
            x  O           71         0.333333   0.231333   0.881900   x 
            x  O           72         0.435333   0.102000   0.881900   x 
            x  O           73         0.435333   0.333333   0.645700   x 
            x  O           74         0.333333   0.435333   0.645700   x 
            x  O           75         0.564667   0.564667   0.645700   x 
            x  O           76         0.342444   0.555556   0.724433   x 
            x  O           77         0.444444   0.453556   0.724433   x 
            x  O           78         0.546444   0.657556   0.724433   x 
            x  O           79         0.453556   0.444444   0.566967   x 
            x  O           80         0.555556   0.342444   0.566967   x 
            x  O           81         0.657556   0.546444   0.566967   x 
            x  O           82         0.657556   0.444444   0.803167   x 
            x  O           83         0.555556   0.546444   0.803167   x 
            x  O           84         0.453556   0.342444   0.803167   x 
            x  O           85         0.546444   0.555556   0.960633   x 
            x  O           86         0.444444   0.657556   0.960633   x 
            x  O           87         0.342444   0.453556   0.960633   x 
            x  O           88         0.564667   0.333333   0.881900   x 
            x  O           89         0.333333   0.564667   0.881900   x 
            x  O           90         0.435333   0.435333   0.881900   x 
            x  O           91         0.435333   0.666667   0.645700   x 
            x  O           92         0.333333   0.768667   0.645700   x 
            x  O           93         0.564667   0.898000   0.645700   x 
            x  O           94         0.342444   0.888889   0.724433   x 
            x  O           95         0.444444   0.786889   0.724433   x 
            x  O           96         0.546444   0.990889   0.724433   x 
            x  O           97         0.453556   0.777778   0.566967   x 
            x  O           98         0.555556   0.675778   0.566967   x 
            x  O           99         0.657556   0.879778   0.566967   x 
            x  O          100         0.657556   0.777778   0.803167   x 
            x  O          101         0.555556   0.879778   0.803167   x 
            x  O          102         0.453556   0.675778   0.803167   x 
            x  O          103         0.546444   0.888889   0.960633   x 
            x  O          104         0.444444   0.990889   0.960633   x 
            x  O          105         0.342444   0.786889   0.960633   x 
            x  O          106         0.564667   0.666667   0.881900   x 
            x  O          107         0.333333   0.898000   0.881900   x 
            x  O          108         0.435333   0.768667   0.881900   x 
            x  O          109         0.768667   0.000000   0.645700   x 
            x  O          110         0.666667   0.102000   0.645700   x 
            x  O          111         0.898000   0.231333   0.645700   x 
            x  O          112         0.675778   0.222222   0.724433   x 
            x  O          113         0.777778   0.120222   0.724433   x 
            x  O          114         0.879778   0.324222   0.724433   x 
            x  O          115         0.786889   0.111111   0.566967   x 
            x  O          116         0.888889   0.009111   0.566967   x 
            x  O          117         0.990889   0.213111   0.566967   x 
            x  O          118         0.990889   0.111111   0.803167   x 
            x  O          119         0.888889   0.213111   0.803167   x 
            x  O          120         0.786889   0.009111   0.803167   x 
            x  O          121         0.879778   0.222222   0.960633   x 
            x  O          122         0.777778   0.324222   0.960633   x 
            x  O          123         0.675778   0.120222   0.960633   x 
            x  O          124         0.898000   0.000000   0.881900   x 
            x  O          125         0.666667   0.231333   0.881900   x 
            x  O          126         0.768667   0.102000   0.881900   x 
            x  O          127         0.768667   0.333333   0.645700   x 
            x  O          128         0.666667   0.435333   0.645700   x 
            x  O          129         0.898000   0.564667   0.645700   x 
            x  O          130         0.675778   0.555556   0.724433   x 
            x  O          131         0.777778   0.453556   0.724433   x 
            x  O          132         0.879778   0.657556   0.724433   x 
            x  O          133         0.786889   0.444444   0.566967   x 
            x  O          134         0.888889   0.342444   0.566967   x 
            x  O          135         0.990889   0.546444   0.566967   x 
            x  O          136         0.990889   0.444444   0.803167   x 
            x  O          137         0.888889   0.546444   0.803167   x 
            x  O          138         0.786889   0.342444   0.803167   x 
            x  O          139         0.879778   0.555556   0.960633   x 
            x  O          140         0.777778   0.657556   0.960633   x 
            x  O          141         0.675778   0.453556   0.960633   x 
            x  O          142         0.898000   0.333333   0.881900   x 
            x  O          143         0.666667   0.564667   0.881900   x 
            x  O          144         0.768667   0.435333   0.881900   x 
            x  O          145         0.768667   0.666667   0.645700   x 
            x  O          146         0.666667   0.768667   0.645700   x 
            x  O          147         0.898000   0.898000   0.645700   x 
            x  O          148         0.675778   0.888889   0.724433   x 
            x  O          149         0.777778   0.786889   0.724433   x 
            x  O          150         0.879778   0.990889   0.724433   x 
            x  O          151         0.786889   0.777778   0.566967   x 
            x  O          152         0.888889   0.675778   0.566967   x 
            x  O          153         0.990889   0.879778   0.566967   x 
            x  O          154         0.990889   0.777778   0.803167   x 
            x  O          155         0.888889   0.879778   0.803167   x 
            x  O          156         0.786889   0.675778   0.803167   x 
            x  O          157         0.879778   0.888889   0.960633   x 
            x  O          158         0.777778   0.990889   0.960633   x 
            x  O          159         0.675778   0.786889   0.960633   x 
            x  O          160         0.898000   0.666667   0.881900   x 
            x  O          161         0.666667   0.898000   0.881900   x 
            x  O          162         0.768667   0.768667   0.881900   x 
            x  Al           1         0.000000   0.000000   0.693885   x 
            x  Al           2         0.000000   0.000000   0.597515   x 
            x  Al           3         0.222222   0.111111   0.615151   x 
            x  Al           4         0.111111   0.222222   0.676249   x 
            x  Al           5         0.222222   0.111111   0.754982   x 
            x  Al           6         0.111111   0.222222   0.772618   x 
            x  Al           7         0.222222   0.111111   0.991182   x 
            x  Al           8         0.111111   0.222222   0.536418   x 
            x  Al           9         0.000000   0.000000   0.833715   x 
            x  Al          10         0.222222   0.111111   0.851351   x 
            x  Al          11         0.000000   0.000000   0.930085   x 
            x  Al          12         0.111111   0.222222   0.912449   x 
            x  Al          13         0.000000   0.333333   0.693885   x 
            x  Al          14         0.000000   0.333333   0.597515   x 
            x  Al          15         0.222222   0.444444   0.615151   x 
            x  Al          16         0.111111   0.555556   0.676249   x 
            x  Al          17         0.222222   0.444444   0.754982   x 
            x  Al          18         0.111111   0.555556   0.772618   x 
            x  Al          19         0.222222   0.444444   0.991182   x 
            x  Al          20         0.111111   0.555556   0.536418   x 
            x  Al          21         0.000000   0.333333   0.833715   x 
            x  Al          22         0.222222   0.444444   0.851351   x 
            x  Al          23         0.000000   0.333333   0.930085   x 
            x  Al          24         0.111111   0.555556   0.912449   x 
            x  Al          25         0.000000   0.666667   0.693885   x 
            x  Al          26         0.000000   0.666667   0.597515   x 
            x  Al          27         0.222222   0.777778   0.615151   x 
            x  Al          28         0.111111   0.888889   0.676249   x 
            x  Al          29         0.222222   0.777778   0.754982   x 
            x  Al          30         0.111111   0.888889   0.772618   x 
            x  Al          31         0.222222   0.777778   0.991182   x 
            x  Al          32         0.111111   0.888889   0.536418   x 
            x  Al          33         0.000000   0.666667   0.833715   x 
            x  Al          34         0.222222   0.777778   0.851351   x 
            x  Al          35         0.000000   0.666667   0.930085   x 
            x  Al          36         0.111111   0.888889   0.912449   x 
            x  Al          37         0.333333   0.000000   0.693885   x 
            x  Al          38         0.333333   0.000000   0.597515   x 
            x  Al          39         0.555556   0.111111   0.615151   x 
            x  Al          40         0.444444   0.222222   0.676249   x 
            x  Al          41         0.555556   0.111111   0.754982   x 
            x  Al          42         0.444444   0.222222   0.772618   x 
            x  Al          43         0.555556   0.111111   0.991182   x 
            x  Al          44         0.444444   0.222222   0.536418   x 
            x  Al          45         0.333333   0.000000   0.833715   x 
            x  Al          46         0.555556   0.111111   0.851351   x 
            x  Al          47         0.333333   0.000000   0.930085   x 
            x  Al          48         0.444444   0.222222   0.912449   x 
            x  Al          49         0.333333   0.333333   0.693885   x 
            x  Al          50         0.333333   0.333333   0.597515   x 
            x  Al          51         0.555556   0.444444   0.615151   x 
            x  Al          52         0.444444   0.555556   0.676249   x 
            x  Al          53         0.555556   0.444444   0.754982   x 
            x  Al          54         0.444444   0.555556   0.772618   x 
            x  Al          55         0.555556   0.444444   0.991182   x 
            x  Al          56         0.444444   0.555556   0.536418   x 
            x  Al          57         0.333333   0.333333   0.833715   x 
            x  Al          58         0.555556   0.444444   0.851351   x 
            x  Al          59         0.333333   0.333333   0.930085   x 
            x  Al          60         0.444444   0.555556   0.912449   x 
            x  Al          61         0.333333   0.666667   0.693885   x 
            x  Al          62         0.333333   0.666667   0.597515   x 
            x  Al          63         0.555556   0.777778   0.615151   x 
            x  Al          64         0.444444   0.888889   0.676249   x 
            x  Al          65         0.555556   0.777778   0.754982   x 
            x  Al          66         0.444444   0.888889   0.772618   x 
            x  Al          67         0.555556   0.777778   0.991182   x 
            x  Al          68         0.444444   0.888889   0.536418   x 
            x  Al          69         0.333333   0.666667   0.833715   x 
            x  Al          70         0.555556   0.777778   0.851351   x 
            x  Al          71         0.333333   0.666667   0.930085   x 
            x  Al          72         0.444444   0.888889   0.912449   x 
            x  Al          73         0.666667   0.000000   0.693885   x 
            x  Al          74         0.666667   0.000000   0.597515   x 
            x  Al          75         0.888889   0.111111   0.615151   x 
            x  Al          76         0.777778   0.222222   0.676249   x 
            x  Al          77         0.888889   0.111111   0.754982   x 
            x  Al          78         0.777778   0.222222   0.772618   x 
            x  Al          79         0.888889   0.111111   0.991182   x 
            x  Al          80         0.777778   0.222222   0.536418   x 
            x  Al          81         0.666667   0.000000   0.833715   x 
            x  Al          82         0.888889   0.111111   0.851351   x 
            x  Al          83         0.666667   0.000000   0.930085   x 
            x  Al          84         0.777778   0.222222   0.912449   x 
            x  Al          85         0.666667   0.333333   0.693885   x 
            x  Al          86         0.666667   0.333333   0.597515   x 
            x  Al          87         0.888889   0.444444   0.615151   x 
            x  Al          88         0.777778   0.555556   0.676249   x 
            x  Al          89         0.888889   0.444444   0.754982   x 
            x  Al          90         0.777778   0.555556   0.772618   x 
            x  Al          91         0.888889   0.444444   0.991182   x 
            x  Al          92         0.777778   0.555556   0.536418   x 
            x  Al          93         0.666667   0.333333   0.833715   x 
            x  Al          94         0.888889   0.444444   0.851351   x 
            x  Al          95         0.666667   0.333333   0.930085   x 
            x  Al          96         0.777778   0.555556   0.912449   x 
            x  Al          97         0.666667   0.666667   0.693885   x 
            x  Al          98         0.666667   0.666667   0.597515   x 
            x  Al          99         0.888889   0.777778   0.615151   x 
            x  Al         100         0.777778   0.888889   0.676249   x 
            x  Al         101         0.888889   0.777778   0.754982   x 
            x  Al         102         0.777778   0.888889   0.772618   x 
            x  Al         103         0.888889   0.777778   0.991182   x 
            x  Al         104         0.777778   0.888889   0.536418   x 
            x  Al         105         0.666667   0.666667   0.833715   x 
            x  Al         106         0.888889   0.777778   0.851351   x 
            x  Al         107         0.666667   0.666667   0.930085   x 
            x  Al         108         0.777778   0.888889   0.912449   x 
            xxxxxxxxxxxxxxxxxxxxxxxxxxxxxxxxxxxxxxxxxxxxxxxxxxxxxxxxxxxx
 
 
                         No user defined ionic velocities
 
                           -------------------------------
                                   Details of Species
                           -------------------------------
 
                               Mass of species in AMU
                                    O   15.9994000
                                    Al   26.9815400
 
                          Electric Quadrupole Moment (Barn)
                                    O   -0.0255800 Isotope 17
                                    Al    0.1466000 Isotope 27
 
                          Files used for pseudopotentials:
                                    O O_00.usp
                                    Al Al_00.usp
 
                           -------------------------------
                              k-Points For BZ Sampling
                           -------------------------------
                       MP grid size for SCF calculation is  2  2  1
                            with an offset of   0.000  0.000  0.000
                       Number of kpoints used =             2
 
                           -------------------------------
                               Symmetry and Constraints
                           -------------------------------
 
                      Cell is a supercell containing 9 primitive cells
                      Maximum deviation from symmetry =  0.00000         ANG
 
                      Number of symmetry operations   =           1
                      Number of ionic constraints     =           3
                      Point group of crystal =     1: C1, 1, 1
                      Space group of crystal =   147: P-3, -P 3
 
             Set iprint > 1 for details on symmetry rotations/translations
 
                         Centre of mass is constrained
             Set iprint > 1 for details of linear ionic constraints
 
                         Number of cell constraints= 0
                         Cell constraints are:  1 2 3 4 5 6
 
                         External pressure/stress (GPa)
                          0.00000   0.00000   0.00000
                                    0.00000   0.00000
                                              0.00000
  
+---------------- MEMORY AND SCRATCH DISK ESTIMATES PER PROCESS --------------+
|                                                     Memory          Disk    |
| Baseline code, static data and system overhead     7327.0 MB         0.0 MB |
| BLAS internal memory storage                          0.0 MB         0.0 MB |
| Model and support data                               25.1 MB         0.0 MB |
| Electronic energy minimisation requirements          12.4 MB         0.0 MB |
| Force calculation requirements                        0.2 MB         0.0 MB |
|                                               ----------------------------- |
| Approx. total storage required per process         7364.4 MB         0.0 MB |
|                                                                             |
| Requirements will fluctuate during execution and may exceed these estimates |
+-----------------------------------------------------------------------------+
Calculating total energy with cut-off of  400.000 eV.
------------------------------------------------------------------------ <-- SCF
SCF loop      Energy           Fermi           Energy gain       Timer   <-- SCF
                               energy          per atom          (sec)   <-- SCF
------------------------------------------------------------------------ <-- SCF
Initial  -5.93950679E+004  0.00000000E+000                         1.57  <-- SCF
      1  -7.23903624E+004  4.07270073E+000   4.81307206E+001      27.96  <-- SCF
      2  -7.78227467E+004  2.01971637E+000   2.01199416E+001      45.39  <-- SCF
      3  -7.79864192E+004  1.80210456E+000   6.06194483E-001      62.99  <-- SCF
      4  -7.78412111E+004  1.95821794E+000  -5.37807820E-001      90.49  <-- SCF
      5  -7.77211087E+004  1.34871175E+000  -4.44823631E-001     116.10  <-- SCF
      6  -7.77152133E+004  1.12197187E+000  -2.18347630E-002     143.04  <-- SCF
      7  -7.77129448E+004  1.05284555E+000  -8.40173225E-003     168.05  <-- SCF
      8  -7.77104457E+004  1.02759113E+000  -9.25616296E-003     193.22  <-- SCF
      9  -7.77084256E+004  9.96374294E-001  -7.48178127E-003     218.15  <-- SCF
     10  -7.77059792E+004  1.11074460E+000  -9.06058184E-003     243.20  <-- SCF
     11  -7.77052092E+004  1.16230581E+000  -2.85178446E-003     267.70  <-- SCF
------------------------------------------------------------------------ <-- SCF
 
Final energy, E             =  -77705.20924737     eV
Final free energy (E-TS)    =  -77705.20924737     eV
(energies not corrected for finite basis set)
 
NB est. 0K energy (E-0.5TS)      =  -77705.20924737     eV
 

Writing analysis data to al3x3.castep_bin

Writing model to al3x3.check
 
 ******************* Unconstrained Forces *******************
 *                                                          *
 *               Cartesian components (eV/A)                *
 * -------------------------------------------------------- *
 *                         x            y            z      *
 *                                                          *
 * O               1      0.16963      0.02655      0.82693 *
 * O               2     -0.10286      0.12786      0.82498 *
 * O               3     -0.06011     -0.15295      0.82682 *
 * O               4     -0.10561      0.02268      0.37509 *
 * O               5      0.02598     -0.10152      0.37464 *
 * O               6      0.07748      0.07565      0.37651 *
 * O               7     -1.65262      1.75619     -1.01772 *
 * O               8     -0.68334     -2.28667     -1.01259 *
 * O               9      2.31922      0.55178     -1.02399 *
 * O              10      0.08772     -0.01413     -0.38363 *
 * O              11     -0.02464      0.08119     -0.37976 *
 * O              12     -0.06080     -0.06328     -0.38302 *
 * O              13      1.66156     -1.78148      0.96161 *
 * O              14      0.69940      2.28878      0.96467 *
 * O              15     -2.37695     -0.54337      0.97129 *
 * O              16     -0.17573     -0.01027     -0.77264 *
 * O              17      0.09480     -0.13824     -0.76952 *
 * O              18      0.07751      0.14851     -0.77768 *
 * O              19      0.16525      0.01916      0.82714 *
 * O              20     -0.09771      0.12607      0.81930 *
 * O              21     -0.05945     -0.15417      0.82072 *
 * O              22     -0.10081      0.02020      0.37736 *
 * O              23      0.02475     -0.09783      0.37929 *
 * O              24      0.07885      0.07690      0.37498 *
 * O              25     -1.64802      1.75882     -1.03136 *
 * O              26     -0.68822     -2.30643     -1.02682 *
 * O              27      2.31556      0.55583     -1.03910 *
 * O              28      0.08356     -0.01787     -0.38557 *
 * O              29     -0.01951      0.08847     -0.38700 *
 * O              30     -0.05900     -0.06571     -0.38470 *
 * O              31      1.63993     -1.75033      0.96867 *
 * O              32      0.70718      2.31041      0.97141 *
 * O              33     -2.37220     -0.54605      0.96591 *
 * O              34     -0.17752     -0.00762     -0.77746 *
 * O              35      0.09660     -0.14338     -0.77052 *
 * O              36      0.07941      0.14727     -0.76983 *
 * O              37      0.16679      0.02381      0.82469 *
 * O              38     -0.09105      0.12724      0.82772 *
 * O              39     -0.06133     -0.14696      0.81875 *
 * O              40     -0.10262      0.02637      0.37579 *
 * O              41      0.02523     -0.10379      0.37831 *
 * O              42      0.07996      0.07411      0.37854 *
 * O              43     -1.63496      1.72750     -1.02825 *
 * O              44     -0.70318     -2.32114     -1.02369 *
 * O              45      2.34418      0.55748     -1.03205 *
 * O              46      0.08535     -0.01404     -0.38173 *
 * O              47     -0.02522      0.08020     -0.38703 *
 * O              48     -0.06102     -0.06480     -0.38045 *
 * O              49      1.65438     -1.76966      0.97131 *
 * O              50      0.70364      2.29070      0.96732 *
 * O              51     -2.36655     -0.53829      0.97516 *
 * O              52     -0.17557     -0.01486     -0.77602 *
 * O              53      0.10084     -0.14503     -0.76576 *
 * O              54      0.07815      0.15352     -0.77903 *
 * O              55      0.16956      0.02466      0.82664 *
 * O              56     -0.09880      0.13307      0.82142 *
 * O              57     -0.05591     -0.15417      0.83149 *
 * O              58     -0.10468      0.02191      0.37639 *
 * O              59      0.02403     -0.10270      0.38087 *
 * O              60      0.07717      0.07438      0.37747 *
 * O              61     -1.66132      1.76358     -1.02351 *
 * O              62     -0.68994     -2.30647     -1.03896 *
 * O              63      2.34653      0.55455     -1.03642 *
 * O              64      0.08089     -0.01945     -0.38416 *
 * O              65     -0.02124      0.08196     -0.38583 *
 * O              66     -0.05617     -0.06179     -0.38246 *
 * O              67      1.65539     -1.77703      0.96610 *
 * O              68      0.69920      2.28922      0.97349 *
 * O              69     -2.35747     -0.54577      0.96188 *
 * O              70     -0.17389     -0.00734     -0.76999 *
 * O              71      0.09651     -0.14268     -0.76903 *
 * O              72      0.07508      0.14932     -0.77045 *
 * O              73      0.16516      0.01934      0.83167 *
 * O              74     -0.10217      0.12918      0.82610 *
 * O              75     -0.06148     -0.14851      0.83148 *
 * O              76     -0.09745      0.02735      0.38054 *
 * O              77      0.02149     -0.10118      0.37840 *
 * O              78      0.08327      0.07745      0.38223 *
 * O              79     -1.67758      1.78174     -1.02821 *
 * O              80     -0.69151     -2.31703     -1.02274 *
 * O              81      2.35654      0.55558     -1.03884 *
 * O              82      0.08908     -0.01817     -0.38138 *
 * O              83     -0.02298      0.08381     -0.38814 *
 * O              84     -0.05471     -0.06212     -0.38098 *
 * O              85      1.65534     -1.77217      0.96575 *
 * O              86      0.70574      2.30577      0.96976 *
 * O              87     -2.37767     -0.54427      0.96417 *
 * O              88     -0.17814     -0.00920     -0.78093 *
 * O              89      0.10092     -0.13883     -0.76817 *
 * O              90      0.07964      0.15133     -0.77367 *
 * O              91      0.16327      0.01833      0.82450 *
 * O              92     -0.09494      0.12780      0.82797 *
 * O              93     -0.05861     -0.15009      0.82205 *
 * O              94     -0.10350      0.02452      0.37727 *
 * O              95      0.02846     -0.10107      0.37527 *
 * O              96      0.08184      0.07510      0.37613 *
 * O              97     -1.66035      1.77325     -1.02037 *
 * O              98     -0.68131     -2.28868     -1.02865 *
 * O              99      2.31612      0.54986     -1.03489 *
 * O             100      0.08492     -0.01719     -0.38852 *
 * O             101     -0.02489      0.08418     -0.37895 *
 * O             102     -0.05507     -0.06143     -0.38289 *
 * O             103      1.63495     -1.74502      0.96256 *
 * O             104      0.70072      2.28986      0.97170 *
 * O             105     -2.37304     -0.54292      0.97293 *
 * O             106     -0.17169     -0.01156     -0.77467 *
 * O             107      0.09904     -0.14114     -0.76870 *
 * O             108      0.08501      0.15218     -0.77162 *
 * O             109      0.16805      0.01896      0.83278 *
 * O             110     -0.10266      0.13219      0.82970 *
 * O             111     -0.05826     -0.14841      0.83015 *
 * O             112     -0.10028      0.02587      0.38079 *
 * O             113      0.02185     -0.09944      0.37758 *
 * O             114      0.08164      0.07276      0.37804 *
 * O             115     -1.66679      1.78076     -1.02618 *
 * O             116     -0.67583     -2.28080     -1.02006 *
 * O             117      2.35430      0.55385     -1.02797 *
 * O             118      0.08516     -0.01964     -0.38375 *
 * O             119     -0.02028      0.07997     -0.38745 *
 * O             120     -0.06124     -0.06514     -0.38200 *
 * O             121      1.65075     -1.76277      0.96571 *
 * O             122      0.69453      2.27842      0.97277 *
 * O             123     -2.39791     -0.54646      0.96475 *
 * O             124     -0.17349     -0.00688     -0.77704 *
 * O             125      0.10235     -0.13766     -0.77220 *
 * O             126      0.07609      0.14631     -0.78087 *
 * O             127      0.16555      0.02652      0.81959 *
 * O             128     -0.09994      0.12954      0.82801 *
 * O             129     -0.05970     -0.15126      0.82669 *
 * O             130     -0.10426      0.02575      0.37513 *
 * O             131      0.02514     -0.09844      0.37849 *
 * O             132      0.08093      0.07581      0.37557 *
 * O             133     -1.64026      1.73905     -1.02650 *
 * O             134     -0.68674     -2.28776     -1.02640 *
 * O             135      2.35252      0.55461     -1.03053 *
 * O             136      0.08600     -0.01773     -0.38553 *
 * O             137     -0.02052      0.08307     -0.38604 *
 * O             138     -0.05813     -0.06842     -0.38106 *
 * O             139      1.65230     -1.76989      0.96459 *
 * O             140      0.70493      2.31251      0.97572 *
 * O             141     -2.38274     -0.55038      0.97663 *
 * O             142     -0.17377     -0.01310     -0.77525 *
 * O             143      0.09781     -0.14222     -0.77025 *
 * O             144      0.07560      0.14896     -0.76808 *
 * O             145      0.16180      0.01542      0.82928 *
 * O             146     -0.10438      0.13566      0.82301 *
 * O             147     -0.05560     -0.14855      0.83284 *
 * O             148     -0.09809      0.02735      0.37758 *
 * O             149      0.02268     -0.09878      0.38279 *
 * O             150      0.07420      0.07600      0.37137 *
 * O             151     -1.66766      1.77181     -1.02809 *
 * O             152     -0.69574     -2.31939     -1.03003 *
 * O             153      2.37356      0.55988     -1.02596 *
 * O             154      0.08801     -0.01726     -0.38039 *
 * O             155     -0.02243      0.08470     -0.38316 *
 * O             156     -0.05921     -0.06583     -0.38626 *
 * O             157      1.64895     -1.77396      0.96734 *
 * O             158      0.70513      2.30488      0.96993 *
 * O             159     -2.36310     -0.54563      0.96602 *
 * O             160     -0.17414     -0.01127     -0.77609 *
 * O             161      0.09058     -0.14407     -0.76322 *
 * O             162      0.07685      0.15039     -0.77429 *
 * Al              1      0.00175     -0.00025     -0.03167 *
 * Al              2     -0.01331      0.01796     -0.86740 *
 * Al              3      0.00758     -0.00408     -1.98387 *
 * Al              4      0.00167      0.00045     -0.24077 *
 * Al              5      0.00110      0.00020     -0.08159 *
 * Al              6      0.00166     -0.00021      0.08369 *
 * Al              7     -0.00560     -0.01428     -7.29427 *
 * Al              8      0.00681      0.00427      7.29480 *
 * Al              9      0.00116      0.00005      0.03749 *
 * Al             10      0.00175      0.00022      0.26105 *
 * Al             11      0.00846     -0.01355      0.86584 *
 * Al             12      0.00284      0.01241      1.98094 *
 * Al             13      0.00135     -0.00036     -0.03204 *
 * Al             14     -0.00654      0.00737     -0.86882 *
 * Al             15      0.00633      0.00079     -1.98022 *
 * Al             16      0.00155      0.00019     -0.24064 *
 * Al             17      0.00073     -0.00013     -0.08206 *
 * Al             18      0.00143     -0.00030      0.08329 *
 * Al             19     -0.02434      0.00492     -7.29499 *
 * Al             20      0.00357     -0.00576      7.29446 *
 * Al             21      0.00120      0.00008      0.03779 *
 * Al             22      0.00170     -0.00026      0.26096 *
 * Al             23      0.01098     -0.01770      0.86840 *
 * Al             24      0.00959      0.00332      1.98199 *
 * Al             25      0.00139     -0.00019     -0.03170 *
 * Al             26      0.01406      0.01009     -0.86804 *
 * Al             27     -0.00533      0.00446     -1.97800 *
 * Al             28      0.00156      0.00053     -0.24043 *
 * Al             29      0.00130      0.00021     -0.08229 *
 * Al             30      0.00173      0.00002      0.08334 *
 * Al             31     -0.01247      0.00029     -7.29365 *
 * Al             32      0.02822     -0.01364      7.29580 *
 * Al             33      0.00144      0.00004      0.03780 *
 * Al             34      0.00172      0.00001      0.26150 *
 * Al             35      0.00480     -0.00525      0.86567 *
 * Al             36      0.00182      0.00669      1.98265 *
 * Al             37      0.00151     -0.00017     -0.03206 *
 * Al             38     -0.01028      0.00686     -0.86724 *
 * Al             39      0.00418     -0.00248     -1.97433 *
 * Al             40      0.00166     -0.00013     -0.24066 *
 * Al             41      0.00119     -0.00046     -0.08213 *
 * Al             42      0.00171      0.00012      0.08330 *
 * Al             43     -0.03030     -0.00442     -7.29268 *
 * Al             44     -0.01207      0.01147      7.29585 *
 * Al             45      0.00141     -0.00011      0.03742 *
 * Al             46      0.00200      0.00005      0.26132 *
 * Al             47      0.01247     -0.00390      0.87120 *
 * Al             48     -0.00173      0.00697      1.98452 *
 * Al             49      0.00156      0.00034     -0.03195 *
 * Al             50     -0.01347     -0.01530     -0.86429 *
 * Al             51      0.00693     -0.00425     -1.96653 *
 * Al             52      0.00150     -0.00038     -0.24099 *
 * Al             53      0.00077     -0.00027     -0.08213 *
 * Al             54      0.00214     -0.00001      0.08345 *
 * Al             55     -0.01974     -0.00276     -7.29467 *
 * Al             56     -0.00097      0.03248      7.29600 *
 * Al             57      0.00110     -0.00033      0.03714 *
 * Al             58      0.00192      0.00040      0.26147 *
 * Al             59      0.01341     -0.01060      0.86475 *
 * Al             60      0.00482      0.00483      1.97890 *
 * Al             61      0.00164      0.00011     -0.03233 *
 * Al             62     -0.00108     -0.01380     -0.86452 *
 * Al             63      0.00937     -0.00379     -1.98107 *
 * Al             64      0.00141      0.00015     -0.24091 *
 * Al             65      0.00120     -0.00014     -0.08230 *
 * Al             66      0.00155      0.00006      0.08307 *
 * Al             67     -0.00538      0.01546     -7.29466 *
 * Al             68      0.00628      0.00920      7.29543 *
 * Al             69      0.00167      0.00037      0.03755 *
 * Al             70      0.00175      0.00020      0.26114 *
 * Al             71     -0.00323     -0.01432      0.86786 *
 * Al             72      0.01166      0.00581      1.98796 *
 * Al             73      0.00140      0.00039     -0.03183 *
 * Al             74     -0.01569     -0.01516     -0.86282 *
 * Al             75      0.00850     -0.01417     -1.97446 *
 * Al             76      0.00124     -0.00024     -0.24087 *
 * Al             77      0.00124     -0.00007     -0.08193 *
 * Al             78      0.00131     -0.00011      0.08328 *
 * Al             79     -0.01612      0.00325     -7.29406 *
 * Al             80      0.01049      0.03077      7.29488 *
 * Al             81      0.00164      0.00012      0.03765 *
 * Al             82      0.00157     -0.00014      0.26149 *
 * Al             83     -0.00607     -0.02404      0.86717 *
 * Al             84      0.00961      0.01312      1.98065 *
 * Al             85      0.00106     -0.00032     -0.03179 *
 * Al             86      0.00991      0.00297     -0.86959 *
 * Al             87     -0.00517     -0.00478     -1.98178 *
 * Al             88      0.00161     -0.00000     -0.24109 *
 * Al             89      0.00088     -0.00033     -0.08199 *
 * Al             90      0.00174      0.00032      0.08357 *
 * Al             91     -0.02633     -0.00716     -7.29428 *
 * Al             92      0.00599     -0.01561      7.29675 *
 * Al             93      0.00144     -0.00023      0.03763 *
 * Al             94      0.00184     -0.00044      0.26149 *
 * Al             95      0.01730     -0.01520      0.86728 *
 * Al             96      0.00457      0.00478      1.97783 *
 * Al             97      0.00135      0.00017     -0.03208 *
 * Al             98     -0.01300      0.00430     -0.86389 *
 * Al             99      0.00033     -0.00455     -1.96633 *
 * Al            100      0.00128      0.00004     -0.24060 *
 * Al            101      0.00080      0.00005     -0.08179 *
 * Al            102      0.00135      0.00014      0.08357 *
 * Al            103     -0.00585     -0.00002     -7.29449 *
 * Al            104      0.00846      0.03056      7.29668 *
 * Al            105      0.00128     -0.00036      0.03726 *
 * Al            106      0.00189     -0.00002      0.26120 *
 * Al            107      0.00418     -0.00267      0.86734 *
 * Al            108      0.00193      0.00422      1.98272 *
 *                                                          *
 ************************************************************
 
 ******************** Constrained Forces ********************
 *                                                          *
 *               Cartesian components (eV/A)                *
 * -------------------------------------------------------- *
 *                         x            y            z      *
 *                                                          *
 * O               1      0.16963      0.02655      0.82693 *
 * O               2     -0.10286      0.12786      0.82498 *
 * O               3     -0.06011     -0.15295      0.82682 *
 * O               4     -0.10561      0.02268      0.37509 *
 * O               5      0.02598     -0.10152      0.37464 *
 * O               6      0.07748      0.07565      0.37651 *
 * O               7     -1.65262      1.75619     -1.01772 *
 * O               8     -0.68334     -2.28667     -1.01259 *
 * O               9      2.31922      0.55178     -1.02399 *
 * O              10      0.08772     -0.01413     -0.38363 *
 * O              11     -0.02464      0.08119     -0.37976 *
 * O              12     -0.06080     -0.06328     -0.38302 *
 * O              13      1.66156     -1.78148      0.96161 *
 * O              14      0.69940      2.28878      0.96467 *
 * O              15     -2.37695     -0.54337      0.97129 *
 * O              16     -0.17573     -0.01027     -0.77264 *
 * O              17      0.09480     -0.13824     -0.76952 *
 * O              18      0.07751      0.14851     -0.77768 *
 * O              19      0.16525      0.01916      0.82714 *
 * O              20     -0.09771      0.12607      0.81930 *
 * O              21     -0.05945     -0.15417      0.82072 *
 * O              22     -0.10081      0.02020      0.37736 *
 * O              23      0.02475     -0.09783      0.37929 *
 * O              24      0.07885      0.07690      0.37498 *
 * O              25     -1.64802      1.75882     -1.03136 *
 * O              26     -0.68822     -2.30643     -1.02682 *
 * O              27      2.31556      0.55583     -1.03910 *
 * O              28      0.08356     -0.01787     -0.38557 *
 * O              29     -0.01951      0.08847     -0.38700 *
 * O              30     -0.05900     -0.06571     -0.38470 *
 * O              31      1.63993     -1.75033      0.96867 *
 * O              32      0.70718      2.31041      0.97141 *
 * O              33     -2.37220     -0.54605      0.96591 *
 * O              34     -0.17752     -0.00762     -0.77746 *
 * O              35      0.09660     -0.14338     -0.77052 *
 * O              36      0.07941      0.14727     -0.76983 *
 * O              37      0.16679      0.02381      0.82469 *
 * O              38     -0.09105      0.12724      0.82772 *
 * O              39     -0.06133     -0.14696      0.81875 *
 * O              40     -0.10262      0.02637      0.37579 *
 * O              41      0.02523     -0.10379      0.37831 *
 * O              42      0.07996      0.07411      0.37854 *
 * O              43     -1.63496      1.72750     -1.02825 *
 * O              44     -0.70318     -2.32114     -1.02369 *
 * O              45      2.34418      0.55748     -1.03205 *
 * O              46      0.08535     -0.01404     -0.38173 *
 * O              47     -0.02522      0.08020     -0.38703 *
 * O              48     -0.06102     -0.06480     -0.38045 *
 * O              49      1.65438     -1.76966      0.97131 *
 * O              50      0.70364      2.29070      0.96732 *
 * O              51     -2.36655     -0.53829      0.97516 *
 * O              52     -0.17557     -0.01486     -0.77602 *
 * O              53      0.10084     -0.14503     -0.76576 *
 * O              54      0.07815      0.15352     -0.77903 *
 * O              55      0.16956      0.02466      0.82664 *
 * O              56     -0.09880      0.13307      0.82142 *
 * O              57     -0.05591     -0.15417      0.83149 *
 * O              58     -0.10468      0.02191      0.37639 *
 * O              59      0.02403     -0.10270      0.38087 *
 * O              60      0.07717      0.07438      0.37747 *
 * O              61     -1.66132      1.76358     -1.02351 *
 * O              62     -0.68994     -2.30647     -1.03896 *
 * O              63      2.34653      0.55455     -1.03642 *
 * O              64      0.08089     -0.01945     -0.38416 *
 * O              65     -0.02124      0.08196     -0.38583 *
 * O              66     -0.05617     -0.06179     -0.38246 *
 * O              67      1.65539     -1.77703      0.96610 *
 * O              68      0.69920      2.28922      0.97349 *
 * O              69     -2.35747     -0.54577      0.96188 *
 * O              70     -0.17389     -0.00734     -0.76999 *
 * O              71      0.09651     -0.14268     -0.76903 *
 * O              72      0.07508      0.14932     -0.77045 *
 * O              73      0.16516      0.01934      0.83167 *
 * O              74     -0.10217      0.12918      0.82610 *
 * O              75     -0.06148     -0.14851      0.83148 *
 * O              76     -0.09745      0.02735      0.38054 *
 * O              77      0.02149     -0.10118      0.37840 *
 * O              78      0.08327      0.07745      0.38223 *
 * O              79     -1.67758      1.78174     -1.02821 *
 * O              80     -0.69151     -2.31703     -1.02274 *
 * O              81      2.35654      0.55558     -1.03884 *
 * O              82      0.08908     -0.01817     -0.38138 *
 * O              83     -0.02298      0.08381     -0.38814 *
 * O              84     -0.05471     -0.06212     -0.38098 *
 * O              85      1.65534     -1.77217      0.96575 *
 * O              86      0.70574      2.30577      0.96976 *
 * O              87     -2.37767     -0.54427      0.96417 *
 * O              88     -0.17814     -0.00920     -0.78093 *
 * O              89      0.10092     -0.13883     -0.76817 *
 * O              90      0.07964      0.15133     -0.77367 *
 * O              91      0.16327      0.01833      0.82450 *
 * O              92     -0.09494      0.12780      0.82797 *
 * O              93     -0.05861     -0.15009      0.82205 *
 * O              94     -0.10350      0.02452      0.37727 *
 * O              95      0.02846     -0.10107      0.37527 *
 * O              96      0.08184      0.07510      0.37613 *
 * O              97     -1.66035      1.77325     -1.02037 *
 * O              98     -0.68131     -2.28868     -1.02865 *
 * O              99      2.31612      0.54986     -1.03489 *
 * O             100      0.08492     -0.01719     -0.38852 *
 * O             101     -0.02489      0.08418     -0.37895 *
 * O             102     -0.05507     -0.06143     -0.38289 *
 * O             103      1.63495     -1.74502      0.96256 *
 * O             104      0.70072      2.28986      0.97170 *
 * O             105     -2.37304     -0.54292      0.97293 *
 * O             106     -0.17169     -0.01156     -0.77467 *
 * O             107      0.09904     -0.14114     -0.76870 *
 * O             108      0.08501      0.15218     -0.77162 *
 * O             109      0.16805      0.01896      0.83278 *
 * O             110     -0.10266      0.13219      0.82970 *
 * O             111     -0.05826     -0.14841      0.83015 *
 * O             112     -0.10028      0.02587      0.38079 *
 * O             113      0.02185     -0.09944      0.37758 *
 * O             114      0.08164      0.07276      0.37804 *
 * O             115     -1.66679      1.78076     -1.02618 *
 * O             116     -0.67583     -2.28080     -1.02006 *
 * O             117      2.35430      0.55385     -1.02797 *
 * O             118      0.08516     -0.01964     -0.38375 *
 * O             119     -0.02028      0.07997     -0.38745 *
 * O             120     -0.06124     -0.06514     -0.38200 *
 * O             121      1.65075     -1.76277      0.96571 *
 * O             122      0.69453      2.27842      0.97277 *
 * O             123     -2.39791     -0.54646      0.96475 *
 * O             124     -0.17349     -0.00688     -0.77704 *
 * O             125      0.10235     -0.13766     -0.77220 *
 * O             126      0.07609      0.14631     -0.78087 *
 * O             127      0.16555      0.02652      0.81959 *
 * O             128     -0.09994      0.12954      0.82801 *
 * O             129     -0.05970     -0.15126      0.82669 *
 * O             130     -0.10426      0.02575      0.37513 *
 * O             131      0.02514     -0.09844      0.37849 *
 * O             132      0.08093      0.07581      0.37557 *
 * O             133     -1.64026      1.73905     -1.02650 *
 * O             134     -0.68674     -2.28776     -1.02640 *
 * O             135      2.35252      0.55461     -1.03053 *
 * O             136      0.08600     -0.01773     -0.38553 *
 * O             137     -0.02052      0.08307     -0.38604 *
 * O             138     -0.05813     -0.06842     -0.38106 *
 * O             139      1.65230     -1.76989      0.96459 *
 * O             140      0.70493      2.31251      0.97572 *
 * O             141     -2.38274     -0.55038      0.97663 *
 * O             142     -0.17377     -0.01310     -0.77525 *
 * O             143      0.09781     -0.14222     -0.77025 *
 * O             144      0.07560      0.14896     -0.76808 *
 * O             145      0.16180      0.01542      0.82928 *
 * O             146     -0.10438      0.13566      0.82301 *
 * O             147     -0.05560     -0.14855      0.83284 *
 * O             148     -0.09809      0.02735      0.37758 *
 * O             149      0.02268     -0.09878      0.38279 *
 * O             150      0.07420      0.07600      0.37137 *
 * O             151     -1.66766      1.77181     -1.02809 *
 * O             152     -0.69574     -2.31939     -1.03003 *
 * O             153      2.37356      0.55988     -1.02596 *
 * O             154      0.08801     -0.01726     -0.38039 *
 * O             155     -0.02243      0.08470     -0.38316 *
 * O             156     -0.05921     -0.06583     -0.38626 *
 * O             157      1.64895     -1.77396      0.96734 *
 * O             158      0.70513      2.30488      0.96993 *
 * O             159     -2.36310     -0.54563      0.96602 *
 * O             160     -0.17414     -0.01127     -0.77609 *
 * O             161      0.09058     -0.14407     -0.76322 *
 * O             162      0.07685      0.15039     -0.77429 *
 * Al              1      0.00175     -0.00025     -0.03167 *
 * Al              2     -0.01331      0.01796     -0.86740 *
 * Al              3      0.00758     -0.00408     -1.98387 *
 * Al              4      0.00167      0.00045     -0.24077 *
 * Al              5      0.00110      0.00020     -0.08159 *
 * Al              6      0.00166     -0.00021      0.08369 *
 * Al              7     -0.00560     -0.01428     -7.29427 *
 * Al              8      0.00681      0.00427      7.29480 *
 * Al              9      0.00116      0.00005      0.03749 *
 * Al             10      0.00175      0.00022      0.26105 *
 * Al             11      0.00846     -0.01355      0.86584 *
 * Al             12      0.00284      0.01241      1.98094 *
 * Al             13      0.00135     -0.00036     -0.03204 *
 * Al             14     -0.00654      0.00737     -0.86882 *
 * Al             15      0.00633      0.00079     -1.98022 *
 * Al             16      0.00155      0.00019     -0.24064 *
 * Al             17      0.00073     -0.00013     -0.08206 *
 * Al             18      0.00143     -0.00030      0.08329 *
 * Al             19     -0.02434      0.00492     -7.29499 *
 * Al             20      0.00357     -0.00576      7.29446 *
 * Al             21      0.00120      0.00008      0.03779 *
 * Al             22      0.00170     -0.00026      0.26096 *
 * Al             23      0.01098     -0.01770      0.86840 *
 * Al             24      0.00959      0.00332      1.98199 *
 * Al             25      0.00139     -0.00019     -0.03170 *
 * Al             26      0.01406      0.01009     -0.86804 *
 * Al             27     -0.00533      0.00446     -1.97800 *
 * Al             28      0.00156      0.00053     -0.24043 *
 * Al             29      0.00130      0.00021     -0.08229 *
 * Al             30      0.00173      0.00002      0.08334 *
 * Al             31     -0.01247      0.00029     -7.29365 *
 * Al             32      0.02822     -0.01364      7.29580 *
 * Al             33      0.00144      0.00004      0.03780 *
 * Al             34      0.00172      0.00001      0.26150 *
 * Al             35      0.00480     -0.00525      0.86567 *
 * Al             36      0.00182      0.00669      1.98265 *
 * Al             37      0.00151     -0.00017     -0.03206 *
 * Al             38     -0.01028      0.00686     -0.86724 *
 * Al             39      0.00418     -0.00248     -1.97433 *
 * Al             40      0.00166     -0.00013     -0.24066 *
 * Al             41      0.00119     -0.00046     -0.08213 *
 * Al             42      0.00171      0.00012      0.08330 *
 * Al             43     -0.03030     -0.00442     -7.29268 *
 * Al             44     -0.01207      0.01147      7.29585 *
 * Al             45      0.00141     -0.00011      0.03742 *
 * Al             46      0.00200      0.00005      0.26132 *
 * Al             47      0.01247     -0.00390      0.87120 *
 * Al             48     -0.00173      0.00697      1.98452 *
 * Al             49      0.00156      0.00034     -0.03195 *
 * Al             50     -0.01347     -0.01530     -0.86429 *
 * Al             51      0.00693     -0.00425     -1.96653 *
 * Al             52      0.00150     -0.00038     -0.24099 *
 * Al             53      0.00077     -0.00027     -0.08213 *
 * Al             54      0.00214     -0.00001      0.08345 *
 * Al             55     -0.01974     -0.00276     -7.29467 *
 * Al             56     -0.00097      0.03248      7.29600 *
 * Al             57      0.00110     -0.00033      0.03714 *
 * Al             58      0.00192      0.00040      0.26147 *
 * Al             59      0.01341     -0.01060      0.86475 *
 * Al             60      0.00482      0.00483      1.97890 *
 * Al             61      0.00164      0.00011     -0.03233 *
 * Al             62     -0.00108     -0.01380     -0.86452 *
 * Al             63      0.00937     -0.00379     -1.98107 *
 * Al             64      0.00141      0.00015     -0.24091 *
 * Al             65      0.00120     -0.00014     -0.08230 *
 * Al             66      0.00155      0.00006      0.08307 *
 * Al             67     -0.00538      0.01546     -7.29466 *
 * Al             68      0.00628      0.00920      7.29543 *
 * Al             69      0.00167      0.00037      0.03755 *
 * Al             70      0.00175      0.00020      0.26114 *
 * Al             71     -0.00323     -0.01432      0.86786 *
 * Al             72      0.01166      0.00581      1.98796 *
 * Al             73      0.00140      0.00039     -0.03183 *
 * Al             74     -0.01569     -0.01516     -0.86282 *
 * Al             75      0.00850     -0.01417     -1.97446 *
 * Al             76      0.00124     -0.00024     -0.24087 *
 * Al             77      0.00124     -0.00007     -0.08193 *
 * Al             78      0.00131     -0.00011      0.08328 *
 * Al             79     -0.01612      0.00325     -7.29406 *
 * Al             80      0.01049      0.03077      7.29488 *
 * Al             81      0.00164      0.00012      0.03765 *
 * Al             82      0.00157     -0.00014      0.26149 *
 * Al             83     -0.00607     -0.02404      0.86717 *
 * Al             84      0.00961      0.01312      1.98065 *
 * Al             85      0.00106     -0.00032     -0.03179 *
 * Al             86      0.00991      0.00297     -0.86959 *
 * Al             87     -0.00517     -0.00478     -1.98178 *
 * Al             88      0.00161     -0.00000     -0.24109 *
 * Al             89      0.00088     -0.00033     -0.08199 *
 * Al             90      0.00174      0.00032      0.08357 *
 * Al             91     -0.02633     -0.00716     -7.29428 *
 * Al             92      0.00599     -0.01561      7.29675 *
 * Al             93      0.00144     -0.00023      0.03763 *
 * Al             94      0.00184     -0.00044      0.26149 *
 * Al             95      0.01730     -0.01520      0.86728 *
 * Al             96      0.00457      0.00478      1.97783 *
 * Al             97      0.00135      0.00017     -0.03208 *
 * Al             98     -0.01300      0.00430     -0.86389 *
 * Al             99      0.00033     -0.00455     -1.96633 *
 * Al            100      0.00128      0.00004     -0.24060 *
 * Al            101      0.00080      0.00005     -0.08179 *
 * Al            102      0.00135      0.00014      0.08357 *
 * Al            103     -0.00585     -0.00002     -7.29449 *
 * Al            104      0.00846      0.03056      7.29668 *
 * Al            105      0.00128     -0.00036      0.03726 *
 * Al            106      0.00189     -0.00002      0.26120 *
 * Al            107      0.00418     -0.00267      0.86734 *
 * Al            108      0.00193      0.00422      1.98272 *
 *                                                          *
 ************************************************************

Writing analysis data to al3x3.castep_bin

Writing model to al3x3.check
 
 A BibTeX formatted list of references used in this run has been written to 
 al3x3.bib
 
Initialisation time =      0.95 s
Calculation time    =    277.23 s
Finalisation time   =      3.96 s
Total time          =    282.15 s
Peak Memory Use     = 7711300 kB
  
Overall parallel efficiency rating: Terrible (11%)                              
  
Data was distributed by:-
G-vector (1568-way); efficiency rating: Terrible (12%)                          
k-point (2-way); efficiency rating: Excellent (96%)                             
  
Parallel notes:
1) Calculation only took 278.4 s, so efficiency estimates may be inaccurate.    
