 DBCSR| CPU Multiplication driver                                           XSMM
 DBCSR| Multrec recursion limit                                              512
 DBCSR| Multiplication stack size                                           1000
 DBCSR| Maximum elements for images                                    UNLIMITED
 DBCSR| Multiplicative factor virtual images                                   1
 DBCSR| Use multiplication densification                                       T
 DBCSR| Multiplication size stacks                                             3
 DBCSR| Number of 3D layers                                               SINGLE
 DBCSR| Use MPI memory allocation                                              T
 DBCSR| Use RMA algorithm                                                      F
 DBCSR| Use Communication thread                                               T
 DBCSR| Communication thread load                                             87


  **** **** ******  **  PROGRAM STARTED AT               2020-09-10 19:57:40.191
 ***** ** ***  *** **   PROGRAM STARTED ON                     openhpc-compute-6
 **    ****   ******    PROGRAM STARTED BY                                steveb
 ***** **    ** ** **   PROGRAM PROCESS ID                                 16251
  **** **  *******  **  PROGRAM STARTED IN /alaska/steveb/hpc-tests/stage/alaska
                                           /ib-gcc9-openmpi4-ucx/cp2k/Cp2k_H2O_2
                                           56_8

 CP2K| version string:                                          CP2K version 7.1
 CP2K| source code revision number:                                  git:e635599
 CP2K| cp2kflags: libint fftw3 libxc parallel mpi3 scalapack xsmm               
 CP2K| is freely available from                            https://www.cp2k.org/
 CP2K| Program compiled at                          Wed Aug 12 17:59:38 BST 2020
 CP2K| Program compiled on                                       openhpc-login-0
 CP2K| Program compiled for                          linux-centos7-broadwell-gcc
 CP2K| Data directory path    /alaska/steveb/spack/opt/spack/linux-centos7-broad
 CP2K| Input file name                                               H2O-256.inp

 GLOBAL| Force Environment number                                              1
 GLOBAL| Basis set file name                                    ./GTH_BASIS_SETS
 GLOBAL| Potential file name                                         ./POTENTIAL
 GLOBAL| MM Potential file name                                     MM_POTENTIAL
 GLOBAL| Coordinate file name                                      __STD_INPUT__
 GLOBAL| Method name                                                        CP2K
 GLOBAL| Project name                                                    H2O-256
 GLOBAL| Preferred FFT library                                             FFTW3
 GLOBAL| Preferred diagonalization lib.                                       SL
 GLOBAL| Run type                                                             MD
 GLOBAL| All-to-all communication in single precision                          F
 GLOBAL| FFTs using library dependent lengths                                  F
 GLOBAL| Global print level                                                  LOW
 GLOBAL| MPI I/O enabled                                                       T
 GLOBAL| Total number of message passing processes                           256
 GLOBAL| Number of threads for this process                                    1
 GLOBAL| This output is from process                                           0
 GLOBAL| CPU model name                Intel(R) Xeon(R) CPU E5-2683 v4 @ 2.10GHz
 GLOBAL| CPUID                                                              1002

 MEMORY| system memory details [Kb]
 MEMORY|                        rank 0           min           max       average
 MEMORY| MemTotal            131760044     131760044     131760044     131760044
 MEMORY| MemFree             118960640     118210916     119427112     118929425
 MEMORY| Buffers                  7316          4840          8912          6888
 MEMORY| Cached                3190392       2993072       3681036       3246132
 MEMORY| Slab                  1420532       1383936       1590964       1454207
 MEMORY| SReclaimable           232372        218076        232640        226537
 MEMORY| MemLikelyFree       122390720     122048684     122669084     122408983


 GENERATE|  Preliminary Number of Bonds generated:                             0
 GENERATE|  Achieved consistency in connectivity generation.

 *******************************************************************************
 *******************************************************************************
 **                                                                           **
 **     #####                         ##              ##                      **
 **    ##   ##            ##          ##              ##                      **
 **   ##     ##                       ##            ######                    **
 **   ##     ##  ##   ##  ##   #####  ##  ##   ####   ##    #####    #####    **
 **   ##     ##  ##   ##  ##  ##      ## ##   ##      ##   ##   ##  ##   ##   **
 **   ##  ## ##  ##   ##  ##  ##      ####     ###    ##   ######   ######    **
 **    ##  ###   ##   ##  ##  ##      ## ##      ##   ##   ##       ##        **
 **     #######   #####   ##   #####  ##  ##  ####    ##    #####   ##        **
 **           ##                                                    ##        **
 **                                                                           **
 **                                                ... make the atoms dance   **
 **                                                                           **
 **            Copyright (C) by CP2K developers group (2000 - 2019)           **
 **                                                                           **
 *******************************************************************************


 TOTAL NUMBERS AND MAXIMUM NUMBERS

  Total number of            - Atomic kinds:                                   2
                             - Atoms:                                        768
                             - Shell sets:                                  1536
                             - Shells:                                      4608
                             - Primitive Cartesian functions:               5376
                             - Cartesian basis functions:                  10752
                             - Spherical basis functions:                  10240

  Maximum angular momentum of- Orbital basis functions:                        2
                             - Local part of the GTH pseudopotential:          2
                             - Non-local part of the GTH pseudopotential:      0


 SCF PARAMETERS         Density guess:                                    ATOMIC
                        --------------------------------------------------------
                        max_scf:                                              50
                        max_scf_history:                                       0
                        max_diis:                                              4
                        --------------------------------------------------------
                        eps_scf:                                        1.00E-05
                        eps_scf_history:                                0.00E+00
                        eps_diis:                                       1.00E-01
                        eps_eigval:                                     1.00E-05
                        --------------------------------------------------------
                        level_shift [a.u.]:                                 0.00
                        --------------------------------------------------------
                        No outer SCF

 MD| Molecular Dynamics Protocol 
 MD| Ensemble Type                                                           NVE
 MD| Number of Time Steps                                                     10
 MD| Time Step [fs]                                                         0.50
 MD| Temperature [K]                                                      300.00
 MD| Temperature tolerance [K]                                              0.00
 MD| Print MD information every                                        1 step(s)
 MD| File type     Print frequency[steps]                             File names
 MD| Coordinates            1                                  H2O-256-pos-1.xyz
 MD| Velocities             1                                  H2O-256-vel-1.xyz
 MD| Energies               1                                     H2O-256-1.ener
 MD| Dump                  20                                  H2O-256-1.restart

 ROT| Rotational Analysis Info 
 ROT| Principal axes and moments of inertia in atomic units:
 ROT|                                1                 2                 3
 ROT| EIGENVALUES            0.190183434E+10   0.192232499E+10   0.197526716E+10
 ROT|      X                     0.083303953      -0.910013404       0.406123202
 ROT|      Y                     0.938537254       0.208637347       0.274987783
 ROT|      Z                    -0.334975036       0.358254186       0.871461797
 ROT| Number of Rotovibrational vectors:     6

 Calculation of degrees of freedom
                                                      Number of atoms:       768
                                 Number of Intramolecular constraints:         0
                                 Number of Intermolecular constraints:         0
                                  Invariants(translation + rotations):         3
                                                   Degrees of freedom:      2301


 Restraints Information
                                  Number of Intramolecular restraints:         0
                                  Number of Intermolecular restraints:         0
 ************************** Velocities initialization **************************
 Initial Temperature                                                    300.00 K
 COM velocity:           -0.000000000000      0.000000000000      0.000000000000
 *******************************************************************************


 Number of electrons:                                                       2048
 Number of occupied orbitals:                                               1024
 Number of molecular orbitals:                                              1024

 Number of orbital functions:                                              10240
 Number of independent orbital functions:                                  10240

 Extrapolation method: initial_guess


 SCF WAVEFUNCTION OPTIMIZATION

  ----------------------------------- OT ---------------------------------------
  Minimizer      : DIIS                : direct inversion
                                         in the iterative subspace
                                         using   7 DIIS vectors
                                         safer DIIS on
  Preconditioner : FULL_KINETIC        : inversion of T + eS
  Precond_solver : DEFAULT
  stepsize       :    0.15000000                  energy_gap     :    0.20000000
  eps_taylor     :   0.10000E-15                  max_taylor     :             4
  ----------------------------------- OT ---------------------------------------

  Step     Update method      Time    Convergence         Total energy    Change
  ------------------------------------------------------------------------------
     1 OT DIIS     0.15E+00    2.6     0.00659818     -4240.4628944206 -4.24E+03
     2 OT DIIS     0.15E+00    1.1     0.00436857     -4294.0959844577 -5.36E+01
     3 OT DIIS     0.15E+00    1.1     0.00339230     -4328.2406241150 -3.41E+01
     4 OT DIIS     0.15E+00    1.1     0.00261110     -4346.1476826975 -1.79E+01
     5 OT DIIS     0.15E+00    1.1     0.00187372     -4363.4180981678 -1.73E+01
     6 OT DIIS     0.15E+00    1.1     0.00146529     -4374.8645554171 -1.14E+01
     7 OT DIIS     0.15E+00    1.1     0.00113319     -4383.9307180874 -9.07E+00
     8 OT DIIS     0.15E+00    1.1     0.00087803     -4390.2031646565 -6.27E+00
     9 OT DIIS     0.15E+00    1.1     0.00068891     -4394.3786502431 -4.18E+00
    10 OT DIIS     0.15E+00    1.1     0.00054026     -4397.2255497742 -2.85E+00
    11 OT DIIS     0.15E+00    1.1     0.00043682     -4399.1371369123 -1.91E+00
    12 OT DIIS     0.15E+00    1.1     0.00035756     -4400.3373280898 -1.20E+00
    13 OT DIIS     0.15E+00    1.1     0.00032467     -4401.0508517510 -7.14E-01
    14 OT DIIS     0.15E+00    1.1     0.00026896     -4401.6943643218 -6.44E-01
    15 OT DIIS     0.15E+00    1.1     0.00022933     -4402.2214678920 -5.27E-01
    16 OT DIIS     0.15E+00    1.1     0.00019872     -4402.6226029828 -4.01E-01
    17 OT DIIS     0.15E+00    1.1     0.00017335     -4402.9368257214 -3.14E-01
    18 OT DIIS     0.15E+00    1.1     0.00014372     -4403.2251002618 -2.88E-01
    19 OT DIIS     0.15E+00    1.1     0.00012689     -4403.3711193761 -1.46E-01
    20 OT DIIS     0.15E+00    1.1     0.00009929     -4403.5496584922 -1.79E-01
    21 OT DIIS     0.15E+00    1.1     0.00008567     -4403.6173214937 -6.77E-02
    22 OT DIIS     0.15E+00    1.1     0.00007198     -4403.6862605757 -6.89E-02
    23 OT DIIS     0.15E+00    1.1     0.00006477     -4403.7275509932 -4.13E-02
    24 OT DIIS     0.15E+00    1.1     0.00005740     -4403.7588114623 -3.13E-02
    25 OT DIIS     0.15E+00    1.1     0.00005341     -4403.7801923730 -2.14E-02
    26 OT DIIS     0.15E+00    1.1     0.00004886     -4403.8049251318 -2.47E-02
    27 OT DIIS     0.15E+00    1.1     0.00004667     -4403.8235452906 -1.86E-02
    28 OT DIIS     0.15E+00    1.1     0.00004610     -4403.8342045275 -1.07E-02
    29 OT SD       0.15E+00    1.1     0.00004634     -4403.8394796804 -5.28E-03
    30 OT SD       0.15E+00    1.1     0.00004662     -4403.8428667474 -3.39E-03
    31 OT SD       0.15E+00    1.1     0.00004694     -4403.8462961355 -3.43E-03
    32 OT SD       0.15E+00    1.1     0.00004731     -4403.8497754052 -3.48E-03
    33 OT SD       0.15E+00    1.1     0.00004772     -4403.8533108817 -3.54E-03
    34 OT SD       0.15E+00    1.1     0.00004815     -4403.8569081828 -3.60E-03
    35 OT SD       0.15E+00    1.1     0.00004862     -4403.8605724182 -3.66E-03
    36 OT SD       0.15E+00    1.1     0.00004910     -4403.8643082727 -3.74E-03
    37 OT SD       0.15E+00    1.1     0.00004961     -4403.8681200402 -3.81E-03
    38 OT SD       0.15E+00    1.1     0.00005014     -4403.8720116351 -3.89E-03
    39 OT DIIS     0.15E+00    1.1     0.00005068     -4403.8759865917 -3.97E-03
    40 OT SD       0.15E+00    1.1     0.00010930     -4403.8735002787  2.49E-03
    41 OT SD       0.15E+00    1.1     0.00008584     -4403.8898709948 -1.64E-02
    42 OT SD       0.15E+00    1.1     0.00007627     -4403.9007175383 -1.08E-02
    43 OT SD       0.15E+00    1.1     0.00007163     -4403.9095438215 -8.83E-03
    44 OT SD       0.15E+00    1.1     0.00006928     -4403.9174587041 -7.91E-03
    45 OT SD       0.15E+00    1.1     0.00006807     -4403.9249301425 -7.47E-03
    46 OT DIIS     0.15E+00    1.1     0.00006743     -4403.9321765082 -7.25E-03
    47 OT SD       0.15E+00    1.1     0.00006974     -4403.9918965635 -5.97E-02
    48 OT SD       0.15E+00    1.1     0.00006852     -4403.9994699969 -7.57E-03
    49 OT DIIS     0.15E+00    1.1     0.00006775     -4404.0068093468 -7.34E-03
    50 OT SD       0.15E+00    1.1     0.00012194     -4404.0058537696  9.56E-04

  Leaving inner SCF loop after reaching    50 steps.


  Electronic density on regular grids:      -2048.0000003211       -0.0000003211
  Core density on regular grids:             2047.9999999924       -0.0000000076
  Total charge density on r-space grids:       -0.0000003287
  Total charge density g-space grids:          -0.0000003287

  Overlap energy of the core charge distribution:               0.00002250401242
  Self energy of the core charge distribution:             -11221.21997975419799
  Core Hamiltonian energy:                                   3302.70084482407765
  Hartree energy:                                            4580.10396735086124
  Exchange-correlation energy:                              -1065.59070869438256

  Total energy:                                             -4404.00585376962863

 *** WARNING in qs_scf.F:542 :: SCF run NOT converged ***


 ENERGY| Total FORCE_EVAL ( QS ) energy (a.u.):            -4404.026764146871756


 MD_ENERGIES| Initialization proceeding


 ******************************** GO CP2K GO! **********************************
 INITIAL POTENTIAL ENERGY[hartree]     =                     -0.440402676415E+04
 INITIAL KINETIC ENERGY[hartree]       =                      0.109302631574E+01
 INITIAL TEMPERATURE[K]                =                                 300.000
 INITIAL VOLUME[bohr^3]                =                      0.518611303645E+05
 INITIAL CELL LNTHS[bohr]   =      0.3729186E+02   0.3729186E+02   0.3729186E+02
 INITIAL CELL ANGLS[deg]    =      0.9000000E+02   0.9000000E+02   0.9000000E+02
 ******************************** GO CP2K GO! **********************************

 Number of electrons:                                                       2048
 Number of occupied orbitals:                                               1024
 Number of molecular orbitals:                                              1024

 Number of orbital functions:                                              10240
 Number of independent orbital functions:                                  10240

 Extrapolation method: PS Nth order


 SCF WAVEFUNCTION OPTIMIZATION

  ----------------------------------- OT ---------------------------------------
  Minimizer      : DIIS                : direct inversion
                                         in the iterative subspace
                                         using   7 DIIS vectors
                                         safer DIIS on
  Preconditioner : FULL_KINETIC        : inversion of T + eS
  Precond_solver : DEFAULT
  stepsize       :    0.15000000                  energy_gap     :    0.20000000
  eps_taylor     :   0.10000E-15                  max_taylor     :             4
  ----------------------------------- OT ---------------------------------------

  Step     Update method      Time    Convergence         Total energy    Change
  ------------------------------------------------------------------------------
     1 OT DIIS     0.15E+00    2.2     0.00018282     -4404.0405049305 -4.40E+03
     2 OT DIIS     0.15E+00    1.1     0.00014370     -4404.0864607950 -4.60E-02
     3 OT DIIS     0.15E+00    1.1     0.00011137     -4404.1431997019 -5.67E-02
     4 OT DIIS     0.15E+00    1.1     0.00009405     -4404.1888373782 -4.56E-02
     5 OT DIIS     0.15E+00    1.1     0.00007253     -4404.2436040608 -5.48E-02
     6 OT DIIS     0.15E+00    1.1     0.00005178     -4404.2830961782 -3.95E-02
     7 OT DIIS     0.15E+00    1.1     0.00003281     -4404.3050273988 -2.19E-02
     8 OT DIIS     0.15E+00    1.1     0.00002068     -4404.3132716692 -8.24E-03
     9 OT DIIS     0.15E+00    1.1     0.00001438     -4404.3156077219 -2.34E-03
    10 OT DIIS     0.15E+00    1.1     0.00001007     -4404.3167172891 -1.11E-03
    11 OT DIIS     0.15E+00    1.1     0.00000698     -4404.3172609942 -5.44E-04

  *** SCF run converged in    11 steps ***


  Electronic density on regular grids:      -2047.9999993858        0.0000006142
  Core density on regular grids:             2047.9999999911       -0.0000000089
  Total charge density on r-space grids:        0.0000006053
  Total charge density g-space grids:           0.0000006053

  Overlap energy of the core charge distribution:               0.00002178947676
  Self energy of the core charge distribution:             -11221.21997975419799
  Core Hamiltonian energy:                                   3301.42583766051939
  Hartree energy:                                            4580.84613315448041
  Exchange-correlation energy:                              -1065.36927384445812

  Total energy:                                             -4404.31726099417847

 ENERGY| Total FORCE_EVAL ( QS ) energy (a.u.):            -4404.317521660364037


 *******************************************************************************
 ENSEMBLE TYPE                =                                              NVE
 STEP NUMBER                  =                                                1
 TIME [fs]                    =                                         0.500000
 CONSERVED QUANTITY [hartree] =                              -0.440319136408E+04

                                              INSTANTANEOUS             AVERAGES
 CPU TIME [s]                 =                       72.84                72.84
 ENERGY DRIFT PER ATOM [K]    =         -0.105926874439E+03   0.000000000000E+00
 POTENTIAL ENERGY[hartree]    =         -0.440431752166E+04  -0.440431752166E+04
 KINETIC ENERGY [hartree]     =          0.112615757548E+01   0.112615757548E+01
 TEMPERATURE [K]              =                     309.093              309.093
 *******************************************************************************


 Number of electrons:                                                       2048
 Number of occupied orbitals:                                               1024
 Number of molecular orbitals:                                              1024

 Number of orbital functions:                                              10240
 Number of independent orbital functions:                                  10240

 Extrapolation method: PS Nth order


 SCF WAVEFUNCTION OPTIMIZATION

  ----------------------------------- OT ---------------------------------------
  Minimizer      : DIIS                : direct inversion
                                         in the iterative subspace
                                         using   7 DIIS vectors
                                         safer DIIS on
  Preconditioner : FULL_KINETIC        : inversion of T + eS
  Precond_solver : DEFAULT
  stepsize       :    0.15000000                  energy_gap     :    0.20000000
  eps_taylor     :   0.10000E-15                  max_taylor     :             4
  ----------------------------------- OT ---------------------------------------

  Step     Update method      Time    Convergence         Total energy    Change
  ------------------------------------------------------------------------------
     1 OT DIIS     0.15E+00    2.2     0.00014872     -4404.3136761350 -4.40E+03
     2 OT DIIS     0.15E+00    1.0     0.00010032     -4404.3419383903 -2.83E-02
     3 OT DIIS     0.15E+00    1.1     0.00006547     -4404.3647368164 -2.28E-02
     4 OT DIIS     0.15E+00    1.1     0.00004565     -4404.3786793903 -1.39E-02
     5 OT DIIS     0.15E+00    1.1     0.00002944     -4404.3880732622 -9.39E-03
     6 OT DIIS     0.15E+00    1.1     0.00001763     -4404.3927403255 -4.67E-03
     7 OT DIIS     0.15E+00    1.1     0.00001077     -4404.3942672984 -1.53E-03
     8 OT DIIS     0.15E+00    1.1     0.00000630     -4404.3948309518 -5.64E-04

  *** SCF run converged in     8 steps ***


  Electronic density on regular grids:      -2047.9999985392        0.0000014608
  Core density on regular grids:             2047.9999999933       -0.0000000067
  Total charge density on r-space grids:        0.0000014542
  Total charge density g-space grids:           0.0000014542

  Overlap energy of the core charge distribution:               0.00001966255552
  Self energy of the core charge distribution:             -11221.21997975419799
  Core Hamiltonian energy:                                   3297.09687215528993
  Hartree energy:                                            4583.93320318396763
  Exchange-correlation energy:                              -1064.20494619942610

  Total energy:                                             -4404.39483095181095

 ENERGY| Total FORCE_EVAL ( QS ) energy (a.u.):            -4404.394996850320240


 *******************************************************************************
 ENSEMBLE TYPE                =                                              NVE
 STEP NUMBER                  =                                                2
 TIME [fs]                    =                                         1.000000
 CONSERVED QUANTITY [hartree] =                              -0.440319281716E+04

                                              INSTANTANEOUS             AVERAGES
 CPU TIME [s]                 =                       11.19                42.02
 ENERGY DRIFT PER ATOM [K]    =         -0.106524327734E+03  -0.532621638669E+02
 POTENTIAL ENERGY[hartree]    =         -0.440439499685E+04  -0.440435625926E+04
 KINETIC ENERGY [hartree]     =          0.120217969080E+01   0.116416863314E+01
 TEMPERATURE [K]              =                     329.959              319.526
 *******************************************************************************


 Number of electrons:                                                       2048
 Number of occupied orbitals:                                               1024
 Number of molecular orbitals:                                              1024

 Number of orbital functions:                                              10240
 Number of independent orbital functions:                                  10240

 Extrapolation method: PS Nth order


 SCF WAVEFUNCTION OPTIMIZATION

  ----------------------------------- OT ---------------------------------------
  Minimizer      : DIIS                : direct inversion
                                         in the iterative subspace
                                         using   7 DIIS vectors
                                         safer DIIS on
  Preconditioner : FULL_KINETIC        : inversion of T + eS
  Precond_solver : DEFAULT
  stepsize       :    0.15000000                  energy_gap     :    0.20000000
  eps_taylor     :   0.10000E-15                  max_taylor     :             4
  ----------------------------------- OT ---------------------------------------

  Step     Update method      Time    Convergence         Total energy    Change
  ------------------------------------------------------------------------------
     1 OT DIIS     0.15E+00    2.2     0.00015818     -4404.2482761354 -4.40E+03
     2 OT DIIS     0.15E+00    1.1     0.00013384     -4404.2841323278 -3.59E-02
     3 OT DIIS     0.15E+00    1.1     0.00010619     -4404.3425897024 -5.85E-02
     4 OT DIIS     0.15E+00    1.1     0.00008679     -4404.3923928536 -4.98E-02
     5 OT DIIS     0.15E+00    1.1     0.00006183     -4404.4453880504 -5.30E-02
     6 OT DIIS     0.15E+00    1.1     0.00003950     -4404.4749869794 -2.96E-02
     7 OT DIIS     0.15E+00    1.1     0.00002575     -4404.4863621393 -1.14E-02
     8 OT DIIS     0.15E+00    1.1     0.00001688     -4404.4905026725 -4.14E-03
     9 OT DIIS     0.15E+00    1.1     0.00001208     -4404.4919743271 -1.47E-03
    10 OT DIIS     0.15E+00    1.1     0.00000823     -4404.4928091913 -8.35E-04

  *** SCF run converged in    10 steps ***


  Electronic density on regular grids:      -2047.9999978023        0.0000021977
  Core density on regular grids:             2047.9999999956       -0.0000000044
  Total charge density on r-space grids:        0.0000021933
  Total charge density g-space grids:           0.0000021933

  Overlap energy of the core charge distribution:               0.00001607591683
  Self energy of the core charge distribution:             -11221.21997975419799
  Core Hamiltonian energy:                                   3290.55876561453124
  Hartree energy:                                            4588.60677181322535
  Exchange-correlation energy:                              -1062.43838294081684

  Total energy:                                             -4404.49280919134162

 ENERGY| Total FORCE_EVAL ( QS ) energy (a.u.):            -4404.493196007245388


 *******************************************************************************
 ENSEMBLE TYPE                =                                              NVE
 STEP NUMBER                  =                                                3
 TIME [fs]                    =                                         1.500000
 CONSERVED QUANTITY [hartree] =                              -0.440319461141E+04

                                              INSTANTANEOUS             AVERAGES
 CPU TIME [s]                 =                       13.67                32.57
 ENERGY DRIFT PER ATOM [K]    =         -0.107262058615E+03  -0.712621287830E+02
 POTENTIAL ENERGY[hartree]    =         -0.440449319601E+04  -0.440440190484E+04
 KINETIC ENERGY [hartree]     =          0.129858460198E+01   0.120897395609E+01
 TEMPERATURE [K]              =                     356.419              331.824
 *******************************************************************************


 Number of electrons:                                                       2048
 Number of occupied orbitals:                                               1024
 Number of molecular orbitals:                                              1024

 Number of orbital functions:                                              10240
 Number of independent orbital functions:                                  10240

 Extrapolation method: PS Nth order


 SCF WAVEFUNCTION OPTIMIZATION

  ----------------------------------- OT ---------------------------------------
  Minimizer      : DIIS                : direct inversion
                                         in the iterative subspace
                                         using   7 DIIS vectors
                                         safer DIIS on
  Preconditioner : FULL_KINETIC        : inversion of T + eS
  Precond_solver : DEFAULT
  stepsize       :    0.15000000                  energy_gap     :    0.20000000
  eps_taylor     :   0.10000E-15                  max_taylor     :             4
  ----------------------------------- OT ---------------------------------------

  Step     Update method      Time    Convergence         Total energy    Change
  ------------------------------------------------------------------------------
     1 OT DIIS     0.15E+00    2.1     0.00015297     -4404.4901986786 -4.40E+03
     2 OT DIIS     0.15E+00    0.9     0.00010500     -4404.5203708747 -3.02E-02
     3 OT DIIS     0.15E+00    0.9     0.00006885     -4404.5460362035 -2.57E-02
     4 OT DIIS     0.15E+00    1.1     0.00004745     -4404.5618444413 -1.58E-02
     5 OT DIIS     0.15E+00    1.1     0.00002779     -4404.5726674464 -1.08E-02
     6 OT DIIS     0.15E+00    1.1     0.00001627     -4404.5765771572 -3.91E-03
     7 OT DIIS     0.15E+00    1.1     0.00000971     -4404.5777717383 -1.19E-03

  *** SCF run converged in     7 steps ***


  Electronic density on regular grids:      -2047.9999971830        0.0000028170
  Core density on regular grids:             2047.9999999947       -0.0000000053
  Total charge density on r-space grids:        0.0000028117
  Total charge density g-space grids:           0.0000028117

  Overlap energy of the core charge distribution:               0.00001168930286
  Self energy of the core charge distribution:             -11221.21997975419799
  Core Hamiltonian energy:                                   3282.59618184877672
  Hartree energy:                                            4594.32229524385730
  Exchange-correlation energy:                              -1060.27628076599103

  Total energy:                                             -4404.57777173825252

 ENERGY| Total FORCE_EVAL ( QS ) energy (a.u.):            -4404.578193164938057


 *******************************************************************************
 ENSEMBLE TYPE                =                                              NVE
 STEP NUMBER                  =                                                4
 TIME [fs]                    =                                         2.000000
 CONSERVED QUANTITY [hartree] =                              -0.440319678244E+04

                                              INSTANTANEOUS             AVERAGES
 CPU TIME [s]                 =                       10.09                26.95
 ENERGY DRIFT PER ATOM [K]    =         -0.108154710831E+03  -0.804852742950E+02
 POTENTIAL ENERGY[hartree]    =         -0.440457819316E+04  -0.440444597692E+04
 KINETIC ENERGY [hartree]     =          0.138141072756E+01   0.125208314895E+01
 TEMPERATURE [K]              =                     379.152              343.656
 *******************************************************************************


 Number of electrons:                                                       2048
 Number of occupied orbitals:                                               1024
 Number of molecular orbitals:                                              1024

 Number of orbital functions:                                              10240
 Number of independent orbital functions:                                  10240

 Extrapolation method: PS Nth order


 SCF WAVEFUNCTION OPTIMIZATION

  ----------------------------------- OT ---------------------------------------
  Minimizer      : DIIS                : direct inversion
                                         in the iterative subspace
                                         using   7 DIIS vectors
                                         safer DIIS on
  Preconditioner : FULL_KINETIC        : inversion of T + eS
  Precond_solver : DEFAULT
  stepsize       :    0.15000000                  energy_gap     :    0.20000000
  eps_taylor     :   0.10000E-15                  max_taylor     :             4
  ----------------------------------- OT ---------------------------------------

  Step     Update method      Time    Convergence         Total energy    Change
  ------------------------------------------------------------------------------
     1 OT DIIS     0.15E+00    2.1     0.00006134     -4404.5903194364 -4.40E+03
     2 OT DIIS     0.15E+00    0.9     0.00005034     -4404.5956427232 -5.32E-03
     3 OT DIIS     0.15E+00    1.1     0.00003460     -4404.6042731648 -8.63E-03
     4 OT DIIS     0.15E+00    1.1     0.00002373     -4404.6097034230 -5.43E-03
     5 OT DIIS     0.15E+00    1.1     0.00001520     -4404.6127517864 -3.05E-03
     6 OT DIIS     0.15E+00    1.1     0.00000972     -4404.6139832564 -1.23E-03

  *** SCF run converged in     6 steps ***


  Electronic density on regular grids:      -2047.9999967013        0.0000032987
  Core density on regular grids:             2047.9999999933       -0.0000000067
  Total charge density on r-space grids:        0.0000032921
  Total charge density g-space grids:           0.0000032921

  Overlap energy of the core charge distribution:               0.00000766400251
  Self energy of the core charge distribution:             -11221.21997975419799
  Core Hamiltonian energy:                                   3274.02720419695197
  Hartree energy:                                            4600.52594156619125
  Exchange-correlation energy:                              -1057.94715692933505

  Total energy:                                             -4404.61398325638766

 ENERGY| Total FORCE_EVAL ( QS ) energy (a.u.):            -4404.614484722979796


 *******************************************************************************
 ENSEMBLE TYPE                =                                              NVE
 STEP NUMBER                  =                                                5
 TIME [fs]                    =                                         2.500000
 CONSERVED QUANTITY [hartree] =                              -0.440319771256E+04

                                              INSTANTANEOUS             AVERAGES
 CPU TIME [s]                 =                        9.16                23.39
 ENERGY DRIFT PER ATOM [K]    =         -0.108537143673E+03  -0.860956481707E+02
 POTENTIAL ENERGY[hartree]    =         -0.440461448472E+04  -0.440447967848E+04
 KINETIC ENERGY [hartree]     =          0.141677216526E+01   0.128502095222E+01
 TEMPERATURE [K]              =                     388.858              352.696
 *******************************************************************************


 Number of electrons:                                                       2048
 Number of occupied orbitals:                                               1024
 Number of molecular orbitals:                                              1024

 Number of orbital functions:                                              10240
 Number of independent orbital functions:                                  10240

 Extrapolation method: PS Nth order


 SCF WAVEFUNCTION OPTIMIZATION

  ----------------------------------- OT ---------------------------------------
  Minimizer      : DIIS                : direct inversion
                                         in the iterative subspace
                                         using   7 DIIS vectors
                                         safer DIIS on
  Preconditioner : FULL_KINETIC        : inversion of T + eS
  Precond_solver : DEFAULT
  stepsize       :    0.15000000                  energy_gap     :    0.20000000
  eps_taylor     :   0.10000E-15                  max_taylor     :             4
  ----------------------------------- OT ---------------------------------------

  Step     Update method      Time    Convergence         Total energy    Change
  ------------------------------------------------------------------------------
     1 OT DIIS     0.15E+00    2.2     0.00005071     -4404.5711887282 -4.40E+03
     2 OT DIIS     0.15E+00    0.9     0.00004146     -4404.5748391474 -3.65E-03
     3 OT DIIS     0.15E+00    0.9     0.00002228     -4404.5814123945 -6.57E-03
     4 OT DIIS     0.15E+00    0.9     0.00001331     -4404.5834388316 -2.03E-03
     5 OT DIIS     0.15E+00    0.9     0.00000803     -4404.5841696718 -7.31E-04

  *** SCF run converged in     5 steps ***


  Electronic density on regular grids:      -2047.9999963765        0.0000036235
  Core density on regular grids:             2047.9999999959       -0.0000000041
  Total charge density on r-space grids:        0.0000036194
  Total charge density g-space grids:           0.0000036194

  Overlap energy of the core charge distribution:               0.00000476328020
  Self energy of the core charge distribution:             -11221.21997975419799
  Core Hamiltonian energy:                                   3265.82513083546291
  Hartree energy:                                            4606.50857169658411
  Exchange-correlation energy:                              -1055.69789721297866

  Total energy:                                             -4404.58416967184894

 ENERGY| Total FORCE_EVAL ( QS ) energy (a.u.):            -4404.584429851714958


 *******************************************************************************
 ENSEMBLE TYPE                =                                              NVE
 STEP NUMBER                  =                                                6
 TIME [fs]                    =                                         3.000000
 CONSERVED QUANTITY [hartree] =                              -0.440319692644E+04

                                              INSTANTANEOUS             AVERAGES
 CPU TIME [s]                 =                        7.71                20.78
 ENERGY DRIFT PER ATOM [K]    =         -0.108213921684E+03  -0.897820270895E+02
 POTENTIAL ENERGY[hartree]    =         -0.440458442985E+04  -0.440449713704E+04
 KINETIC ENERGY [hartree]     =          0.138750340678E+01   0.130210136131E+01
 TEMPERATURE [K]              =                     380.824              357.384
 *******************************************************************************


 Number of electrons:                                                       2048
 Number of occupied orbitals:                                               1024
 Number of molecular orbitals:                                              1024

 Number of orbital functions:                                              10240
 Number of independent orbital functions:                                  10240

 Extrapolation method: PS Nth order


 SCF WAVEFUNCTION OPTIMIZATION

  ----------------------------------- OT ---------------------------------------
  Minimizer      : DIIS                : direct inversion
                                         in the iterative subspace
                                         using   7 DIIS vectors
                                         safer DIIS on
  Preconditioner : FULL_KINETIC        : inversion of T + eS
  Precond_solver : DEFAULT
  stepsize       :    0.15000000                  energy_gap     :    0.20000000
  eps_taylor     :   0.10000E-15                  max_taylor     :             4
  ----------------------------------- OT ---------------------------------------

  Step     Update method      Time    Convergence         Total energy    Change
  ------------------------------------------------------------------------------
     1 OT DIIS     0.15E+00    2.1     0.00004721     -4404.4843646815 -4.40E+03
     2 OT DIIS     0.15E+00    0.9     0.00003937     -4404.4875604186 -3.20E-03
     3 OT DIIS     0.15E+00    0.9     0.00002130     -4404.4939838435 -6.42E-03
     4 OT DIIS     0.15E+00    0.9     0.00001355     -4404.4959353235 -1.95E-03
     5 OT DIIS     0.15E+00    1.0     0.00000905     -4404.4967001154 -7.65E-04

  *** SCF run converged in     5 steps ***


  Electronic density on regular grids:      -2047.9999961952        0.0000038048
  Core density on regular grids:             2048.0000000013        0.0000000013
  Total charge density on r-space grids:        0.0000038062
  Total charge density g-space grids:           0.0000038062

  Overlap energy of the core charge distribution:               0.00000301339949
  Self energy of the core charge distribution:             -11221.21997975419799
  Core Hamiltonian energy:                                   3258.62575450914346
  Hartree energy:                                            4611.81420488241383
  Exchange-correlation energy:                              -1053.71668276614287

  Total energy:                                             -4404.49670011538456

 ENERGY| Total FORCE_EVAL ( QS ) energy (a.u.):            -4404.497070795049694


 *******************************************************************************
 ENSEMBLE TYPE                =                                              NVE
 STEP NUMBER                  =                                                7
 TIME [fs]                    =                                         3.500000
 CONSERVED QUANTITY [hartree] =                              -0.440319455333E+04

                                              INSTANTANEOUS             AVERAGES
 CPU TIME [s]                 =                        7.69                18.91
 ENERGY DRIFT PER ATOM [K]    =         -0.107238178711E+03  -0.922757630354E+02
 POTENTIAL ENERGY[hartree]    =         -0.440449707080E+04  -0.440449712758E+04
 KINETIC ENERGY [hartree]     =          0.130251746844E+01   0.130216080519E+01
 TEMPERATURE [K]              =                     357.498              357.401
 *******************************************************************************


 Number of electrons:                                                       2048
 Number of occupied orbitals:                                               1024
 Number of molecular orbitals:                                              1024

 Number of orbital functions:                                              10240
 Number of independent orbital functions:                                  10240

 Extrapolation method: PS Nth order


 SCF WAVEFUNCTION OPTIMIZATION

  ----------------------------------- OT ---------------------------------------
  Minimizer      : DIIS                : direct inversion
                                         in the iterative subspace
                                         using   7 DIIS vectors
                                         safer DIIS on
  Preconditioner : FULL_KINETIC        : inversion of T + eS
  Precond_solver : DEFAULT
  stepsize       :    0.15000000                  energy_gap     :    0.20000000
  eps_taylor     :   0.10000E-15                  max_taylor     :             4
  ----------------------------------- OT ---------------------------------------

  Step     Update method      Time    Convergence         Total energy    Change
  ------------------------------------------------------------------------------
     1 OT DIIS     0.15E+00    2.1     0.00004296     -4404.3743536020 -4.40E+03
     2 OT DIIS     0.15E+00    0.9     0.00003570     -4404.3769982025 -2.64E-03
     3 OT DIIS     0.15E+00    0.9     0.00001694     -4404.3823946391 -5.40E-03
     4 OT DIIS     0.15E+00    1.0     0.00001148     -4404.3834677254 -1.07E-03
     5 OT DIIS     0.15E+00    0.9     0.00000809     -4404.3839973419 -5.30E-04

  *** SCF run converged in     5 steps ***


  Electronic density on regular grids:      -2047.9999961250        0.0000038750
  Core density on regular grids:             2048.0000000051        0.0000000051
  Total charge density on r-space grids:        0.0000038800
  Total charge density g-space grids:           0.0000038800

  Overlap energy of the core charge distribution:               0.00000208242101
  Self energy of the core charge distribution:             -11221.21997975419799
  Core Hamiltonian energy:                                   3253.02637521493762
  Hartree energy:                                            4615.97156627678214
  Exchange-correlation energy:                              -1052.16196116181550

  Total energy:                                             -4404.38399734187260

 ENERGY| Total FORCE_EVAL ( QS ) energy (a.u.):            -4404.384348239920655


 *******************************************************************************
 ENSEMBLE TYPE                =                                              NVE
 STEP NUMBER                  =                                                8
 TIME [fs]                    =                                         4.000000
 CONSERVED QUANTITY [hartree] =                              -0.440319200508E+04

                                              INSTANTANEOUS             AVERAGES
 CPU TIME [s]                 =                        7.71                17.51
 ENERGY DRIFT PER ATOM [K]    =         -0.106190430125E+03  -0.940150964216E+02
 POTENTIAL ENERGY[hartree]    =         -0.440438434824E+04  -0.440448303016E+04
 KINETIC ENERGY [hartree]     =          0.119234315751E+01   0.128843359923E+01
 TEMPERATURE [K]              =                     327.259              353.633
 *******************************************************************************


 Number of electrons:                                                       2048
 Number of occupied orbitals:                                               1024
 Number of molecular orbitals:                                              1024

 Number of orbital functions:                                              10240
 Number of independent orbital functions:                                  10240

 Extrapolation method: PS Nth order


 SCF WAVEFUNCTION OPTIMIZATION

  ----------------------------------- OT ---------------------------------------
  Minimizer      : DIIS                : direct inversion
                                         in the iterative subspace
                                         using   7 DIIS vectors
                                         safer DIIS on
  Preconditioner : FULL_KINETIC        : inversion of T + eS
  Precond_solver : DEFAULT
  stepsize       :    0.15000000                  energy_gap     :    0.20000000
  eps_taylor     :   0.10000E-15                  max_taylor     :             4
  ----------------------------------- OT ---------------------------------------

  Step     Update method      Time    Convergence         Total energy    Change
  ------------------------------------------------------------------------------
     1 OT DIIS     0.15E+00    2.1     0.00004278     -4404.2745949426 -4.40E+03
     2 OT DIIS     0.15E+00    0.9     0.00003554     -4404.2772096668 -2.61E-03
     3 OT DIIS     0.15E+00    1.0     0.00002054     -4404.2820866235 -4.88E-03
     4 OT DIIS     0.15E+00    0.9     0.00001372     -4404.2838456904 -1.76E-03
     5 OT DIIS     0.15E+00    1.0     0.00000989     -4404.2846343096 -7.89E-04

  *** SCF run converged in     5 steps ***


  Electronic density on regular grids:      -2047.9999961335        0.0000038665
  Core density on regular grids:             2048.0000000029        0.0000000029
  Total charge density on r-space grids:        0.0000038693
  Total charge density g-space grids:           0.0000038693

  Overlap energy of the core charge distribution:               0.00000165738571
  Self energy of the core charge distribution:             -11221.21997975419799
  Core Hamiltonian energy:                                   3249.20734356453431
  Hartree energy:                                            4618.83526274102860
  Exchange-correlation energy:                              -1051.10726251830602

  Total energy:                                             -4404.28463430955617

 ENERGY| Total FORCE_EVAL ( QS ) energy (a.u.):            -4404.285179005156351


 *******************************************************************************
 ENSEMBLE TYPE                =                                              NVE
 STEP NUMBER                  =                                                9
 TIME [fs]                    =                                         4.500000
 CONSERVED QUANTITY [hartree] =                              -0.440318980357E+04

                                              INSTANTANEOUS             AVERAGES
 CPU TIME [s]                 =                        7.75                16.42
 ENERGY DRIFT PER ATOM [K]    =         -0.105285244542E+03  -0.952673351017E+02
 POTENTIAL ENERGY[hartree]    =         -0.440428517901E+04  -0.440446104670E+04
 KINETIC ENERGY [hartree]     =          0.109537543744E+01   0.126698269236E+01
 TEMPERATURE [K]              =                     300.645              347.745
 *******************************************************************************


 Number of electrons:                                                       2048
 Number of occupied orbitals:                                               1024
 Number of molecular orbitals:                                              1024

 Number of orbital functions:                                              10240
 Number of independent orbital functions:                                  10240

 Extrapolation method: PS Nth order


 SCF WAVEFUNCTION OPTIMIZATION

  ----------------------------------- OT ---------------------------------------
  Minimizer      : DIIS                : direct inversion
                                         in the iterative subspace
                                         using   7 DIIS vectors
                                         safer DIIS on
  Preconditioner : FULL_KINETIC        : inversion of T + eS
  Precond_solver : DEFAULT
  stepsize       :    0.15000000                  energy_gap     :    0.20000000
  eps_taylor     :   0.10000E-15                  max_taylor     :             4
  ----------------------------------- OT ---------------------------------------

  Step     Update method      Time    Convergence         Total energy    Change
  ------------------------------------------------------------------------------
     1 OT DIIS     0.15E+00    2.1     0.00004113     -4404.2221319587 -4.40E+03
     2 OT DIIS     0.15E+00    1.0     0.00003454     -4404.2245657489 -2.43E-03
     3 OT DIIS     0.15E+00    1.0     0.00001870     -4404.2295920877 -5.03E-03
     4 OT DIIS     0.15E+00    1.0     0.00001298     -4404.2310203996 -1.43E-03
     5 OT DIIS     0.15E+00    0.9     0.00000955     -4404.2317508367 -7.30E-04

  *** SCF run converged in     5 steps ***


  Electronic density on regular grids:      -2047.9999962032        0.0000037968
  Core density on regular grids:             2047.9999999969       -0.0000000031
  Total charge density on r-space grids:        0.0000037937
  Total charge density g-space grids:           0.0000037937

  Overlap energy of the core charge distribution:               0.00000155876359
  Self energy of the core charge distribution:             -11221.21997975419799
  Core Hamiltonian energy:                                   3247.44523900831791
  Hartree energy:                                            4620.16064019734404
  Exchange-correlation energy:                              -1050.61765184687988

  Total energy:                                             -4404.23175083665319

 ENERGY| Total FORCE_EVAL ( QS ) energy (a.u.):            -4404.232305818413806


 *******************************************************************************
 ENSEMBLE TYPE                =                                              NVE
 STEP NUMBER                  =                                               10
 TIME [fs]                    =                                         5.000000
 CONSERVED QUANTITY [hartree] =                              -0.440318878972E+04

                                              INSTANTANEOUS             AVERAGES
 CPU TIME [s]                 =                        7.76                15.56
 ENERGY DRIFT PER ATOM [K]    =         -0.104868387329E+03  -0.962274403244E+02
 POTENTIAL ENERGY[hartree]    =         -0.440423230582E+04  -0.440443817261E+04
 KINETIC ENERGY [hartree]     =          0.104351609504E+01   0.124463603263E+01
 TEMPERATURE [K]              =                     286.411              341.612
 *******************************************************************************


 -------------------------------------------------------------------------------
 -                                                                             -
 -                                DBCSR STATISTICS                             -
 -                                                                             -
 -------------------------------------------------------------------------------
 COUNTER                                    TOTAL       BLAS       SMM       ACC
 flops     9 x    32 x    32           3321888768       0.0%    100.0%      0.0%
 flops    22 x    32 x    32           4060086272       0.0%    100.0%      0.0%
 flops     9 x     9 x    64        1420239992832       0.0%    100.0%      0.0%
 flops    64 x    64 x    64        1943472701440       0.0%    100.0%      0.0%
 flops    22 x     9 x    64        1972057190400       0.0%    100.0%      0.0%
 flops     9 x    22 x    64        1977770336256       0.0%    100.0%      0.0%
 flops    22 x    22 x    64        2734287699968       0.0%    100.0%      0.0%
 flops     9 x    32 x     9        5962613575680       0.0%    100.0%      0.0%
 flops    22 x    32 x     9        8325932617728       0.0%    100.0%      0.0%
 flops     9 x    32 x    22        8325932617728       0.0%    100.0%      0.0%
 flops    64 x    64 x   640        9814000271360       0.0%    100.0%      0.0%
 flops    22 x    32 x    22       11452938371072       0.0%    100.0%      0.0%
 flops   640 x    64 x    64       12090332938240       0.0%    100.0%      0.0%
 flops   640 x    64 x   640       27487790694400       0.0%    100.0%      0.0%
 flops inhomo. stacks                           0       0.0%      0.0%      0.0%
 flops total                        93.514751E+12       0.0%    100.0%      0.0%
 flops max/rank                    370.326905E+09       0.0%    100.0%      0.0%
 matmuls inhomo. stacks                         0       0.0%      0.0%      0.0%
 matmuls total                         3179645696       0.0%    100.0%      0.0%
 number of processed stacks              15602128       0.0%    100.0%      0.0%
 average stack size                                     0.0     203.8       0.0
 marketing flops                   144.579337E+12
 -------------------------------------------------------------------------------
 # multiplications                           2507
 max memory usage/rank             258.396160E+06
 # max total images/rank                        1
 # max 3D layers                                1
 # MPI messages exchanged                19253760
 MPI messages size (bytes):
  total size                         6.657282E+12
  min size                           0.000000E+00
  max size                           3.276800E+06
  average size                     345.765312E+03
 MPI breakdown and total messages size (bytes):
             size <=      128              124080                        0
       128 < size <=     8192                   0                        0
      8192 < size <=    32768             9114960             298635755520
     32768 < size <=   131072                   0                        0
    131072 < size <=  4194304            10014720            6358633315920
   4194304 < size <= 16777216                   0                        0
  16777216 < size                               0                        0
 -------------------------------------------------------------------------------
 -                                                                             -
 -                      DBCSR MESSAGE PASSING PERFORMANCE                      -
 -                                                                             -
 -------------------------------------------------------------------------------
 ROUTINE             CALLS      AVE VOLUME [Bytes]
 MP_Group              187
 MP_Bcast               15                     12.
 MP_Allreduce        13350                     37.
 MP_Alltoall          9654                 128709.
 MP_Wait            361008
 MP_ISend           160404                 162442.
 MP_IRecv           160404                 162223.
 MP_Memory           82492
 -------------------------------------------------------------------------------

 MEMORY| Estimated peak process memory [MiB]                                 244

 -------------------------------------------------------------------------------
 -                                                                             -
 -                         MESSAGE PASSING PERFORMANCE                         -
 -                                                                             -
 -------------------------------------------------------------------------------

 ROUTINE             CALLS      AVE VOLUME [Bytes]
 MP_Group                4
 MP_Bcast             3985                  45437.
 MP_Allreduce        10921                    799.
 MP_Sync              1623
 MP_Alltoall          2249              108471607.
 MP_ISendRecv       130560                   8640.
 MP_Wait            143244
 MP_comm_split          83
 MP_ISend            30772                  40439.
 MP_IRecv            30772                  40439.
 -------------------------------------------------------------------------------


 -------------------------------------------------------------------------------
 -                                                                             -
 -                           R E F E R E N C E S                               -
 -                                                                             -
 -------------------------------------------------------------------------------
 
 CP2K version 7.1, the CP2K developers group (2019).
 CP2K is freely available from https://www.cp2k.org/ .

 Schuett, Ole; Messmer, Peter; Hutter, Juerg; VandeVondele, Joost. 
 Electronic Structure Calculations on Graphics Processing Units, John
 Wiley & Sons, Ltd, 173-190 (2016). 
 GPU-Accelerated Sparse Matrix-Matrix Multiplication for
 Linear Scaling Density Functional Theory.
 https://dx.doi.org/10.1002/9781118670712.ch8

 Borstnik, U; VandeVondele, J; Weber, V; Hutter, J. 
 PARALLEL COMPUTING, 40 (5-6), 47-58 (2014). 
 Sparse matrix multiplication: The distributed block-compressed sparse
 row library.
 https://dx.doi.org/10.1016/j.parco.2014.03.012

 Hutter, J; Iannuzzi, M; Schiffmann, F; VandeVondele, J. 
 WIREs Comput Mol Sci., 4 (1), 15-25 (2014). 
 CP2K: atomistic simulations of condensed matter systems.
 https://dx.doi.org/10.1002/wcms.1159

 Krack, M. 
 THEORETICAL CHEMISTRY ACCOUNTS, 114 (1-3), 145-152 (2005). 
 Pseudopotentials for H to Kr optimized for gradient-corrected
 exchange-correlation functionals.
 https://dx.doi.org/10.1007/s00214-005-0655-y

 VandeVondele, J; Krack, M; Mohamed, F; Parrinello, M; Chassaing, T;
 Hutter, J. COMPUTER PHYSICS COMMUNICATIONS, 167 (2), 103-128 (2005). 
 QUICKSTEP: Fast and accurate density functional calculations using a
 mixed Gaussian and plane waves approach.
 https://dx.doi.org/10.1016/j.cpc.2004.12.014

 Frigo, M; Johnson, SG. 
 PROCEEDINGS OF THE IEEE, 93 (2), 216-231 (2005). 
 The design and implementation of FFTW3.
 https://dx.doi.org/10.1109/JPROC.2004.840301

 VandeVondele, J; Hutter, J. 
 JOURNAL OF CHEMICAL PHYSICS, 118 (10), 4365-4369 (2003). 
 An efficient orbital transformation method for electronic structure
 calculations.
 https://dx.doi.org/10.1063/1.1543154

 Hartwigsen, C; Goedecker, S; Hutter, J. 
 PHYSICAL REVIEW B, 58 (7), 3641-3662 (1998). 
 Relativistic separable dual-space Gaussian pseudopotentials from H to Rn.
 https://dx.doi.org/10.1103/PhysRevB.58.3641

 Lippert, G; Hutter, J; Parrinello, M. 
 MOLECULAR PHYSICS, 92 (3), 477-487 (1997). 
 A hybrid Gaussian and plane wave density functional scheme.
 https://dx.doi.org/10.1080/002689797170220

 Goedecker, S; Teter, M; Hutter, J. 
 PHYSICAL REVIEW B, 54 (3), 1703-1710 (1996). 
 Separable dual-space Gaussian pseudopotentials.
 https://dx.doi.org/10.1103/PhysRevB.54.1703


 -------------------------------------------------------------------------------
 -                                                                             -
 -                                T I M I N G                                  -
 -                                                                             -
 -------------------------------------------------------------------------------
 SUBROUTINE                       CALLS  ASD         SELF TIME        TOTAL TIME
                                MAXIMUM       AVERAGE  MAXIMUM  AVERAGE  MAXIMUM
 CP2K                                 1  1.0    0.064    0.078  155.905  155.907
 qs_mol_dyn_low                       1  2.0    0.007    0.012  155.592  155.615
 qs_forces                           11  3.9    0.004    0.004  155.469  155.471
 qs_energies                         11  4.9    0.001    0.002  149.389  149.407
 scf_env_do_scf                      11  5.9    0.001    0.001  139.046  139.052
 scf_env_do_scf_inner_loop          117  6.6    0.006    0.012  121.340  121.343
 velocity_verlet                     10  3.0    0.002    0.005   97.347   97.349
 qs_scf_new_mos                     117  7.6    0.001    0.001   67.854   68.151
 qs_scf_loop_do_ot                  117  8.6    0.001    0.001   67.853   68.150
 dbcsr_multiply_generic            2507 12.6    0.198    0.216   66.817   67.521
 ot_scf_mini                        117  9.6    0.003    0.004   63.822   64.041
 multiply_cannon                   2507 13.6    0.545    0.596   52.395   53.873
 rebuild_ks_matrix                  128  8.3    0.001    0.001   37.893   38.151
 qs_ks_build_kohn_sham_matrix       128  9.3    0.017    0.020   37.892   38.150
 ot_mini                            117 10.6    0.001    0.002   35.993   36.215
 qs_ks_update_qs_env                128  7.6    0.001    0.001   33.810   34.022
 multiply_cannon_multrec          40112 14.6   25.550   28.708   25.569   28.728
 mp_waitall_1                    495752 15.3   24.823   28.451   24.823   28.451
 sum_up_and_integrate               128 10.3    0.032    0.048   25.521   25.598
 integrate_v_rspace                 128 11.3   11.482   12.804   25.488   25.573
 qs_rho_update_rho                  128  7.7    0.001    0.003   24.740   24.965
 calculate_rho_elec                 128  8.7    9.860   10.826   24.739   24.965
 ot_diis_step                       117 11.6    0.005    0.005   18.592   18.593
 apply_preconditioner_dbcsr         128 12.6    0.000    0.001   17.543   18.024
 apply_single                       128 13.6    0.001    0.001   17.542   18.023
 init_scf_loop                       11  6.9    0.001    0.001   17.593   17.594
 qs_ot_get_derivative               117 11.6    0.001    0.002   17.122   17.346
 qs_ot_get_p                        128 10.4    0.001    0.001   15.628   15.907
 rs_pw_transfer                    1046 11.9    0.019    0.024   14.092   15.212
 multiply_cannon_metrocomm3       40112 14.6    0.122    0.134    9.809   14.108
 multiply_cannon_metrocomm1       40112 14.6    0.147    0.159   10.305   13.582
 prepare_preconditioner              11  7.9    0.000    0.000   13.165   13.222
 make_preconditioner                 11  8.9    0.000    0.000   13.165   13.222
 density_rs2pw                      128  9.7    0.005    0.007   11.775   12.836
 make_full_inverse_cholesky          11  9.9    0.000    0.000   12.287   12.376
 qs_ot_p2m_diag                      83 11.4    0.029    0.034   11.712   11.722
 cp_dbcsr_syevd                      83 12.4    0.006    0.006   11.122   11.125
 mp_alltoall_d11v                  2426 14.1    9.870   10.976    9.870   10.976
 cp_fm_syevd                         83 13.4    0.001    0.001   10.250   10.259
 cp_fm_redistribute_end              83 14.4    9.334   10.140    9.354   10.144
 rs_distribute_matrix               267 11.0    0.650    0.764    9.005    9.982
 cp_fm_syevd_base                    83 14.4    0.777    9.968    0.777    9.968
 mp_waitany                        8500 13.9    8.473    9.838    8.473    9.838
 make_m2s                          5014 13.6    0.159    0.177    8.014    8.353
 cp_fm_cholesky_invert               11 10.9    8.213    8.225    8.213    8.225
 qs_ot_get_derivative_diag           77 12.4    0.002    0.002    7.715    7.905
 rs_pw_transfer_RS2PW_140           139 11.5    0.349    0.429    6.638    7.816
 init_scf_run                        11  5.9    0.000    0.003    7.683    7.684
 scf_env_initial_rho_setup           11  6.9    0.000    0.001    7.683    7.684
 make_images                       5014 14.6    0.258    0.287    6.628    7.037
 potential_pw2rs                    128 12.3    0.006    0.009    6.836    6.960
 wfi_extrapolate                     11  7.9    0.001    0.001    6.851    6.851
 pw_transfer                       1547 11.6    0.084    0.096    6.075    6.471
 fft_wrap_pw1pw2                   1291 12.7    0.013    0.015    5.938    6.324
 mp_sum_l                         11967 13.6    5.050    5.660    5.050    5.660
 mp_sum_d                          4457 12.1    4.124    5.052    4.124    5.052
 calculate_dm_sparse                128  9.5    0.001    0.001    4.477    4.732
 fft_wrap_pw1pw2_140                523 13.2    0.256    0.358    4.112    4.601
 multiply_cannon_metrocomm4       37605 14.6    0.129    0.139    3.380    4.555
 mp_irecv_dv                      84756 15.6    3.501    4.459    3.501    4.459
 qs_ks_update_qs_env_forces          11  4.9    0.000    0.000    4.410    4.457
 fft3d_pb                           523 14.2    1.081    1.728    3.539    4.092
 hybrid_alltoall_any               5200 16.5    0.312    1.421    3.490    3.983
 cp_dbcsr_sm_fm_multiply             37  9.5    0.002    0.002    3.889    3.926
 make_images_data                  5014 15.6    0.098    0.110    3.209    3.868
 dbcsr_dot_sd                      1318 12.0    0.346    0.431    2.914    3.396
 qs_ot_get_orbitals                 117 10.6    0.001    0.001    3.331    3.378
 dbcsr_complete_redistribute        395 12.7    0.846    0.938    3.042    3.185
 mp_alltoall_z22v                  1814 16.6    2.450    3.051    2.450    3.051
 qs_ot_get_derivative_taylor         40 13.0    0.001    0.001    2.899    3.001
 cp_dbcsr_sm_fm_multiply_core        37 10.5    0.000    0.000    2.872    2.984
 cp_fm_cholesky_decompose            22 10.9    2.900    2.950    2.900    2.950
 copy_dbcsr_to_fm                   186 11.8    0.004    0.005    2.797    2.913
 rs_pw_transfer_PW2RS_140           139 14.0    0.824    1.329    1.976    2.399
 make_images_sizes                 5014 15.6    0.006    0.007    1.406    2.232
 mp_alltoall_i44                   5014 16.6    1.400    2.226    1.400    2.226
 mp_allgather_i34                  2507 14.6    1.212    2.168    1.212    2.168
 make_images_pack                  5014 15.6    1.515    1.990    1.530    2.005
 fft3d_ps                           768 15.0    0.114    0.271    1.757    1.977
 copy_fm_to_dbcsr                   209 11.7    0.001    0.002    1.783    1.920
 rs_pw_transfer_PW2RS_50            128 14.3    0.366    0.570    1.431    1.821
 qs_energies_init_hamiltonians       11  5.9    0.001    0.001    1.663    1.664
 dbcsr_make_dense_low              6437 15.6    0.054    0.059    1.382    1.556
 make_basis_sm                       11  9.8    0.000    0.001    1.489    1.501
 make_dense_data                   6437 16.6    1.276    1.452    1.302    1.478
 dbcsr_desymmetrize_deep            186 12.8    0.054    0.072    1.363    1.476
 rs_pw_transfer_RS2PW_50            128 11.7    0.294    0.382    1.141    1.443
 rs_grid_zero                       790 11.5    0.941    1.391    0.941    1.391
 reorthogonalize_vectors             10  9.0    0.000    0.000    1.329    1.340
 dbcsr_make_images_dense           4384 14.8    0.067    0.076    1.183    1.327
 fft_wrap_pw1pw2_50                 256 14.0    0.020    0.046    1.093    1.327
 dbcsr_finalize                    6041 13.6    0.028    0.031    1.123    1.305
 qs_env_update_s_mstruct             11  6.9    0.000    0.001    1.192    1.271
 multiply_cannon_metrocomm2       37605 14.6    0.147    0.160    0.695    1.251
 dbcsr_merge_all                   3200 14.6    0.286    0.423    1.048    1.229
 rs_pw_transfer_PW2RS_20            128 14.3    0.399    0.486    1.093    1.214
 cube_transpose_2                   651 15.2    0.060    0.081    0.822    1.210
 cp_gemm                             81  9.0    0.000    0.000    1.145    1.185
 cp_gemm_fm_gemm                     81 10.0    0.001    0.001    1.145    1.184
 cp_fm_gemm                          81 11.0    1.144    1.184    1.144    1.184
 mp_sync                           1623 17.0    0.892    1.170    0.892    1.170
 ot_scf_init                         11  7.9    0.001    0.002    1.110    1.133
 rs_pw_transfer_RS2PW_20            128 11.7    0.404    0.473    1.104    1.132
 cube_transpose_1                   640 16.2    0.088    0.141    0.701    1.122
 transfer_dbcsr_to_fm                11 10.9    0.000    0.000    1.008    1.053
 cube_transpose_4                   267 15.9    0.081    0.124    0.755    1.034
 mp_alltoall_i22                    716 14.1    0.823    1.010    0.823    1.010
 cp_dbcsr_plus_fm_fm_t_native        22  8.9    0.001    0.001    0.945    1.003
 build_core_hamiltonian_matrix_      11  4.9    0.000    0.000    0.760    0.999
 transfer_fm_to_dbcsr                11  9.9    0.000    0.000    0.871    0.994
 qs_energies_compute_matrix_w        11  5.9    0.000    0.000    0.945    0.966
 calculate_w_matrix_ot               11  6.9    0.001    0.001    0.945    0.966
 mp_alltoall_i11v                  1776 14.1    0.882    0.901    0.882    0.901
 qs_vxc_create                      128 10.3    0.003    0.012    0.703    0.858
 xc_vxc_pw_create                   128 11.3    0.021    0.022    0.701    0.855
 calculate_ecore_overlap             22  5.9    0.000    0.000    0.709    0.842
 yz_to_xz                           384 17.3    0.065    0.132    0.709    0.836
 cube_transpose_3                   256 14.5    0.112    0.194    0.514    0.801
 buffer_matrices_ensure_size       5014 14.6    0.564    0.780    0.569    0.784
 dbcsr_new_transposed              1139 13.5    0.020    0.022    0.665    0.696
 dbcsr_redistribute                 135 14.6    0.015    0.016    0.624    0.655
 qs_create_task_list                 11  7.9    0.000    0.000    0.639    0.651
 generate_qs_task_list               11  8.9    0.086    0.128    0.639    0.651
 calculate_rho_core                  11  7.9    0.018    0.021    0.546    0.622
 mp_bcast_b                        1900 13.7    0.329    0.596    0.329    0.596
 build_core_ppl_forces               11  5.9    0.340    0.587    0.340    0.587
 arnoldi_extremal                   128 11.4    0.002    0.003    0.540    0.587
 arnoldi_normal_ev                  128 12.4    0.003    0.003    0.537    0.584
 external_control                   127  7.2    0.001    0.006    0.313    0.579
 xz_to_yz                           384 14.7    0.051    0.131    0.457    0.572
 distribute_tasks                    11  9.9    0.025    0.030    0.553    0.570
 calculate_first_density_matrix       1  7.0    0.000    0.000    0.518    0.522
 build_core_hamiltonian_matrix       11  6.9    0.000    0.001    0.382    0.516
 fft_wrap_pw1pw2_20                 256 14.0    0.005    0.014    0.465    0.512
 dbcsr_copy                        2358 11.8    0.346    0.474    0.374    0.504
 mp_isendrecv_dv                 130560 14.0    0.242    0.482    0.242    0.482
 tree_to_linear_d                  1136 14.7    0.352    0.480    0.352    0.480
 dbcsr_destroy                    27333 14.2    0.060    0.068    0.197    0.413
 dbcsr_data_release              154659 16.1    0.139    0.279    0.193    0.406
 xc_rho_set_and_dset_create         128 12.3    0.004    0.006    0.373    0.406
 dbcsr_make_dense                  2053 14.0    0.011    0.012    0.348    0.398
 mp_isend_dv                      84756 15.6    0.261    0.396    0.261    0.396
 rs_pw_transfer_PW2RS_10            128 14.3    0.127    0.141    0.354    0.395
 xc_functional_eval                 128 13.3    0.350    0.393    0.350    0.393
 mp_sum_dm                          460  4.9    0.313    0.368    0.313    0.368
 rs_pw_transfer_RS2PW_10            128 11.7    0.095    0.109    0.334    0.367
 build_core_ppl                      11  7.9    0.207    0.333    0.207    0.333
 evaluate_core_matrix_traces        128  8.3    0.001    0.001    0.327    0.330
 calculate_ptrace_kp                256  9.3    0.001    0.001    0.326    0.330
 dbcsr_data_copy_aa2               1324 14.1    0.259    0.328    0.259    0.328
 load_balance_distributed            22 10.9    0.000    0.000    0.312    0.327
 get_current_loads                  132 11.9    0.073    0.110    0.285    0.325
 arnoldi_init                       128 13.4    0.001    0.002    0.276    0.323
 build_core_ppnl_forces              11  5.9    0.244    0.311    0.244    0.311
 mp_irecv_dm3                      4228 13.9    0.110    0.284    0.110    0.284
 pw_gather_p                        651 14.2    0.190    0.284    0.190    0.284
 dbcsr_matrix_vector_mult          1823 14.1    0.011    0.013    0.255    0.280
 cp_fm_upper_to_full                 22 12.4    0.202    0.269    0.202    0.269
 compute_load_list                   44 11.9    0.096    0.144    0.237    0.267
 fft_wrap_pw1pw2_10                 256 14.0    0.002    0.007    0.256    0.266
 mp_alltoall_l                      143 12.8    0.213    0.264    0.213    0.264
 pw_copy                           1024 12.7    0.168    0.252    0.168    0.252
 dbcsr_create_new                 28469 14.9    0.105    0.116    0.226    0.250
 mp_sum_dv                         7094 15.3    0.182    0.249    0.182    0.249
 pw_poisson_solve                   128 10.3    0.093    0.111    0.244    0.247
 build_subspace                     128 13.4    0.007    0.008    0.232    0.233
 dbcsr_add_d                       1769 12.8    0.002    0.002    0.203    0.222
 dbcsr_add_anytype                 1769 13.8    0.115    0.137    0.201    0.219
 integrate_v_core_rspace             11  7.9    0.017    0.023    0.176    0.215
 pw_scatter_p                       640 15.2    0.156    0.211    0.156    0.211
 mp_sum_iv                          495 12.0    0.161    0.209    0.161    0.209
 cp_dbcsr_cholesky_decompose         11 12.9    0.035    0.035    0.187    0.195
 cp_fm_redistribute_start            83 14.4    0.096    0.146    0.118    0.187
 build_overlap_matrix                22  6.9    0.122    0.167    0.130    0.177
 dbcsr_make_undense                2053 14.0    0.130    0.143    0.160    0.176
 build_kinetic_matrix                22  6.9    0.126    0.166    0.133    0.174
 dbcsr_cholesky_invert               11 12.9    0.059    0.061    0.172    0.172
 dbcsr_make_untransposed_blocks    2986 13.5    0.084    0.160    0.094    0.170
 dbcsr_data_new                   82484 15.7    0.080    0.123    0.118    0.159
 dbcsr_add_wm_from_matrix           479 12.9    0.002    0.002    0.120    0.151
 merge_index                       3200 15.6    0.133    0.148    0.133    0.148
 dbcsr_fill_wm_from_matrix          479 13.9    0.115    0.146    0.117    0.148
 mp_deallocate_d                  19752 17.3    0.057    0.145    0.057    0.145
 cp_fm_triangular_multiply           11 10.8    0.124    0.132    0.124    0.132
 qs_init_subsys                       1  2.0    0.004    0.005    0.128    0.129
 dbcsr_col_vec_to_rep_row          1823 15.1    0.007    0.009    0.094    0.129
 qs_ot_p2m_taylor                    45 11.5    0.000    0.000    0.123    0.126
 quick_finalize                    7513 16.0    0.031    0.034    0.113    0.124
 mp_bcast_dv                       1906 16.1    0.070    0.123    0.070    0.123
 dbcsr_special_finalize            5014 15.6    0.011    0.012    0.111    0.121
 qs_env_setup                         1  3.0    0.001    0.001    0.117    0.119
 qs_env_rebuild_pw_env               23  5.3    0.000    0.001    0.115    0.117
 pw_env_rebuild                       1  5.0    0.001    0.011    0.115    0.117
 mp_isend_iv                      85194 15.6    0.097    0.112    0.097    0.112
 copy_fm_to_dbcsr_bc                209 12.7    0.052    0.076    0.079    0.108
 md_output                           10  3.0    0.000    0.001    0.008    0.107
 setup_rec_index_2d                5014 14.6    0.092    0.106    0.092    0.106
 dbcsr_mm_multrec_init             2507 14.6    0.008    0.009    0.096    0.105
 pw_axpy                            640 10.6    0.058    0.105    0.058    0.105
 mp_sum_b                          4417 13.8    0.101    0.105    0.101    0.105
 setup_buffer_matrices             5014 14.6    0.022    0.025    0.084    0.102
 mp_rank_compare                    768 16.0    0.088    0.099    0.088    0.099
 dbcsr_mm_csr_init                 2507 15.6    0.060    0.065    0.088    0.097
 optimize_load_list                  22 11.9    0.001    0.001    0.071    0.097
 build_core_ppnl                     11  7.9    0.076    0.096    0.076    0.096
 mp_isend_dm3                      4228 13.9    0.061    0.095    0.061    0.095
 md_write_output                     11  3.9    0.001    0.056    0.002    0.095
 mp_irecv_iv                      85194 15.6    0.074    0.093    0.074    0.093
 update_particle_set                 20  4.0    0.000    0.000    0.092    0.093
 cp_fm_create                       457 12.4    0.046    0.083    0.046    0.083
 dbcsr_sort_indices               12818 16.3    0.074    0.082    0.074    0.082
 dbcsr_set                         4503 15.0    0.004    0.005    0.063    0.080
 copy_dbcsr_to_fm_bc                186 12.8    0.061    0.078    0.062    0.079
 dbcsr_zero                        4657 15.9    0.059    0.077    0.059    0.077
 build_qs_neighbor_lists             11  6.9    0.001    0.001    0.064    0.076
 dbcsr_reserve_blocks               809 14.5    0.050    0.069    0.054    0.073
 mp_cart_create                     191 13.6    0.064    0.072    0.064    0.072
 create_local_tasks                  11 10.9    0.009    0.012    0.071    0.072
 dbcsr_make_index_exist           28469 15.9    0.048    0.052    0.064    0.070
 pw_grid_setup                        4  6.0    0.000    0.000    0.064    0.065
 pw_grid_setup_internal               4  7.0    0.001    0.001    0.064    0.065
 mp_bcast_i3                         22 12.9    0.048    0.061    0.048    0.061
 dbcsr_iterator_start             35572 15.9    0.040    0.043    0.054    0.059
 mp_allocate_d                    19752 17.3    0.040    0.059    0.040    0.059
 load_balance_replicated             11 10.9    0.001    0.003    0.053    0.057
 create_qs_kind_set                   1  2.0    0.000    0.000    0.046    0.056
 read_qs_kind                         2  3.0    0.017    0.028    0.046    0.056
 cp_fm_init_random                    1  8.0    0.047    0.052    0.047    0.052
 dbcsr_make_dists_dense            2192 13.8    0.038    0.040    0.048    0.051
 dbcsr_distribution_new           13812 14.1    0.044    0.048    0.044    0.048
 cp_dbcsr_alloc_block_from_nbl       88  7.7    0.006    0.008    0.035    0.047
 mp_cart_sub                        379 13.7    0.044    0.047    0.044    0.047
 dbcsr_iterator_stop              35572 15.9    0.032    0.035    0.041    0.044
 mp_alltoall_l11v                    11 11.9    0.041    0.043    0.041    0.043
 pw_grid_remap                        4  8.0    0.003    0.004    0.033    0.041
 mp_comm_compare                    771 16.0    0.036    0.040    0.036    0.040
 dbcsr_switch_data_area           17915 16.3    0.018    0.020    0.036    0.040
 parser_read_line                  2169  4.0    0.001    0.001    0.028    0.039
 mp_sum_im3                           4  9.0    0.030    0.039    0.030    0.039
 parser_read_line_low                 4  5.0    0.005    0.010    0.028    0.039
 write_trajectory                    44  4.9    0.001    0.011    0.001    0.039
 mp_isend_zv                      24064 17.0    0.014    0.039    0.014    0.039
 dbcsr_matrix_vector_mult_local    1823 15.1    0.031    0.034    0.034    0.038
 mp_sum_root_iv                      22 12.9    0.005    0.037    0.005    0.037
 mp_sum_partial_im                   22 12.9    0.018    0.036    0.018    0.036
 broadcast_input_information          4  6.0    0.000    0.000    0.022    0.036
 dbcsr_reserve_all_blocks           721 14.2    0.002    0.002    0.026    0.036
 dbcsr_work_create                10693 14.7    0.022    0.023    0.032    0.036
 Gram_Schmidt_ortho_d              1695 14.1    0.002    0.004    0.028    0.034
 build_neighbor_lists_sac_ppl        11  7.9    0.028    0.034    0.028    0.034
 pw_zero                            128 10.7    0.021    0.032    0.021    0.032
 topology_control                     1  2.0    0.001    0.002    0.022    0.030
 mp_bcast_i                         101  2.8    0.011    0.029    0.011    0.029
 fill_hash_tables                  2507 16.6    0.023    0.028    0.023    0.028
 mp_max_l                            22  1.8    0.026    0.028    0.026    0.028
 write_particle_coordinates          11  5.9    0.000    0.028    0.000    0.028
 mp_allocate_i                    21505 17.0    0.023    0.026    0.023    0.026
 compute_max_radius                   1  6.0    0.022    0.024    0.022    0.024
 mp_deallocate_i                  21505 16.7    0.022    0.024    0.022    0.024
 pw_grid_sort                         4  8.0    0.005    0.010    0.013    0.024
 get_fft_scratch                   1292 15.7    0.013    0.018    0.019    0.024
 dbcsr_mm_multrec_finalize         2507 15.6    0.018    0.022    0.019    0.023
 mp_comm_split                       83 15.4    0.021    0.023    0.021    0.023
 dbcsr_work_destroy_all           10693 15.6    0.015    0.017    0.020    0.022
 DGKS_ortho_d                      1695 14.1    0.001    0.003    0.017    0.021
 mp_bcast_am                          4  7.0    0.011    0.021    0.011    0.021
 dbcsr_make_dbcsr_index           12919 16.3    0.018    0.021    0.018    0.021
 compute_evals                      128 13.4    0.017    0.020    0.017    0.020
 rs_grid_create_descriptor            4  6.0    0.001    0.006    0.016    0.020
 write_restart                       10  4.0    0.000    0.015    0.006    0.020
 build_neighbor_lists_sap_ppnl       11  7.9    0.016    0.020    0.016    0.020
 dbcsr_gershgorin_norm               47 11.0    0.001    0.001    0.016    0.019
 mp_comm_dup                          8  6.5    0.017    0.018    0.017    0.018
 qs_scf_ensure_work_matrices         11  5.9    0.000    0.001    0.012    0.018
 wfs_update                          11  5.9    0.000    0.001    0.013    0.018
 dbcsr_iterator_seek              35572 16.9    0.014    0.018    0.014    0.018
 connectivity_control                 1  3.0    0.000    0.001    0.010    0.017
 dbcsr_scale_anytype               2015 14.7    0.012    0.015    0.013    0.017
 dbcsr_scale_d                      246 13.5    0.000    0.001    0.013    0.017
 mp_maxloc_dv                      1127  1.0    0.014    0.016    0.014    0.016
 cp_fm_release                      462 12.1    0.004    0.016    0.004    0.016
 dbcsr_get_data_size_used          5679 14.8    0.014    0.016    0.014    0.016
 mp_bcast_iv                         23  3.9    0.002    0.016    0.002    0.016
 topology_generate_bond               1  4.0    0.000    0.000    0.009    0.015
 dbcsr_make_index_list             5014 14.6    0.012    0.015    0.012    0.015
 dbcsr_get_local_rows              4560 14.2    0.013    0.014    0.013    0.014
 sort_shells                          4  9.0    0.008    0.014    0.008    0.014
 dbcsr_get_local_cols              4560 14.2    0.013    0.014    0.013    0.014
 coordinate_control                   1  3.0    0.000    0.000    0.007    0.013
 coordinate_control_READ_COORDI       1  4.0    0.000    0.000    0.007    0.013
 read_atoms_input                     1  5.0    0.007    0.013    0.007    0.013
 mp_irecv_zv                      24064 17.0    0.004    0.012    0.004    0.012
 mp_allgather_l                     143 12.8    0.007    0.011    0.007    0.011
 dbcsr_scale_by_vector_anytype      283 11.6    0.008    0.009    0.009    0.010
 create_fast_row_vec_access        1823 15.1    0.002    0.002    0.009    0.010
 cp_fm_to_fm_matrix                  21  7.9    0.006    0.010    0.006    0.010
 mp_bcast_av                        563  1.0    0.002    0.003    0.007    0.009
 balance_global_list                 22 12.9    0.000    0.009    0.000    0.009
 update_input                         1  5.0    0.000    0.000    0.006    0.009
 mp_max_i                           387  1.6    0.008    0.009    0.008    0.009
 qs_env_rebuild_rho                  11  7.9    0.000    0.000    0.007    0.009
 qs_rho_rebuild                      11  8.9    0.000    0.001    0.006    0.009
 update_subsys                        1  6.0    0.000    0.000    0.005    0.009
 transpose_index_local             1139 14.5    0.004    0.005    0.008    0.009
 create_fast_col_vec_access        1823 15.1    0.001    0.002    0.008    0.009
 mp_comm_free                       659 13.7    0.005    0.009    0.005    0.009
 section_coord_val_set                1  7.0    0.005    0.009    0.005    0.009
 mp_bcast_im                        129 14.4    0.007    0.008    0.007    0.008
 calculate_atomic_block_dm            1  8.0    0.002    0.002    0.008    0.008
 restraint_control                   11  3.9    0.000    0.000    0.008    0.008
 create_fast_row_vec_access_d      1823 16.1    0.004    0.004    0.007    0.008
 make_full_kinetic                   11  9.9    0.000    0.000    0.007    0.008
 cleanup_scf_loop                    11  7.9    0.000    0.001    0.004    0.008
 dbcsr_index_prune_deleted         4384 15.8    0.007    0.008    0.007    0.008
 build_neighbor_lists_sab_all        11  7.9    0.006    0.008    0.006    0.008
 create_fast_col_vec_access_d      1823 16.1    0.003    0.004    0.007    0.008
 topology_generate_bond_3             1  5.0    0.000    0.000    0.005    0.007
 build_fist_neighbor_lists            1  6.0    0.000    0.000    0.005    0.007
 build_neighbor_lists_sab_core       11  7.9    0.007    0.007    0.007    0.007
 mp_sum_i                            15  6.7    0.006    0.007    0.006    0.007
 build_neighbor_lists_sab_orb        11  7.9    0.006    0.007    0.006    0.007
 fft3d_s                              1  2.0    0.000    0.000    0.006    0.007
 build_neighbor_lists                 1  7.0    0.005    0.007    0.005    0.007
 topology_generate_bond_4             1  5.0    0.002    0.006    0.003    0.007
 dbcsr_mm_sched_init               2507 16.6    0.004    0.005    0.006    0.007
 dbcsr_hadamard_product             154 13.4    0.003    0.004    0.006    0.007
 dbcsr_make_index_local_row        5014 14.6    0.005    0.006    0.005    0.006
 mp_sum_lv                           20  3.2    0.002    0.005    0.002    0.005
 dbcsr_copy_into_existing            22  7.9    0.004    0.005    0.004    0.005
 create_col_vec_from_matrix         256 13.4    0.001    0.001    0.004    0.005
 mp_environ_c                      1295 15.7    0.004    0.005    0.004    0.005
 scf_post_calculation_gpw            11  5.9    0.000    0.001    0.003    0.005
 dbcsr_finalize_lib                   1  2.0    0.000    0.005    0.000    0.005
 pw_scale                           128 10.3    0.004    0.005    0.004    0.005
 pw_pool_create_pw                 2596 11.8    0.003    0.004    0.004    0.005
 pw_grid_assign                       4  8.0    0.002    0.004    0.004    0.005
 write_mo_set_to_restart            117  7.6    0.003    0.005    0.003    0.005
 pw_pool_give_back_pw              3083 12.0    0.003    0.005    0.003    0.005
 pw_grid_distribute                   4  8.0    0.002    0.003    0.004    0.004
 mp_alltoall_i                        3 15.0    0.003    0.004    0.003    0.004
 mp_min_lv                            4  8.0    0.003    0.004    0.003    0.004
 topology_connectivity_pack           1  3.0    0.000    0.000    0.003    0.004
 create_destination_list             22 11.9    0.003    0.004    0.003    0.004
 read_qs_section                      1  3.0    0.003    0.004    0.003    0.004
 write_available_results             11  6.9    0.000    0.000    0.002    0.004
 calculate_atom                       2  9.0    0.000    0.000    0.002    0.003
 calculate_atom_restricted            2 10.0    0.002    0.003    0.002    0.003
 mp_sum_im                           88 11.7    0.003    0.003    0.003    0.003
 scf_c_write_parameters               1  3.0    0.000    0.003    0.000    0.003
 write_qs_control                     1  3.0    0.003    0.003    0.003    0.003
 cp_fm_scale_and_add                 24  9.0    0.002    0.003    0.002    0.003
 topology_generate_bond_1             1  5.0    0.001    0.003    0.001    0.003
 mp_environ_l                      2199 15.2    0.003    0.003    0.003    0.003
 ot_scf_read_input                   11  7.9    0.000    0.001    0.001    0.003
 qs_scf_loop_print                  117  7.6    0.002    0.003    0.002    0.003
 mp_max_lv                            4  8.0    0.001    0.003    0.001    0.003
 dbcsr_add_on_diag                   90 12.5    0.000    0.001    0.002    0.003
 dbcsr_get_global_row_map          2507 13.6    0.002    0.003    0.002    0.003
 ot_readwrite_input                  11  8.9    0.000    0.003    0.000    0.003
 write_mo_free_results               11  7.9    0.001    0.001    0.001    0.002
 dbcsr_get_global_col_map          2507 13.6    0.002    0.002    0.002    0.002
 rot_ana                              1  3.0    0.000    0.001    0.001    0.002
 init_cube_info                       4  6.0    0.002    0.002    0.002    0.002
 create_replicated_col_vec_from     128 13.4    0.000    0.001    0.002    0.002
 create_local_fixd_list              11  4.9    0.002    0.002    0.002    0.002
 scf_env_release                      3  4.0    0.000    0.000    0.000    0.002
 mp_cart_rank                      1379 15.0    0.002    0.002    0.002    0.002
 diamat_all                           1  4.0    0.001    0.002    0.001    0.002
 fix_atom_control                    11  3.9    0.002    0.002    0.002    0.002
 create_replicated_row_vec_from     128 13.4    0.000    0.000    0.002    0.002
 destroy_preconditioner               1  3.0    0.000    0.002    0.000    0.002
 dbcsr_mm_hostdrv_init             2507 17.6    0.001    0.002    0.001    0.002
 fist_neighbor_init                   1  8.0    0.000    0.002    0.000    0.002
 init_qs_kind_set                     1  3.0    0.000    0.000    0.001    0.002
 init_qs_kind                         2  4.0    0.000    0.000    0.001    0.002
 qs_efield_local_operator           128 10.3    0.001    0.002    0.001    0.002
 init_orb_basis_set                   2  5.0    0.000    0.000    0.001    0.002
 dbcsr_mm_sched_finalize           2507 16.6    0.001    0.001    0.001    0.001
 init_cphi_and_sphi                   2  6.0    0.000    0.001    0.000    0.001
 atom_int_setup                       2  9.0    0.001    0.001    0.001    0.001
 topology_connectivity_pack_2         1  4.0    0.001    0.001    0.001    0.001
 distribute_molecules_2d              1  4.0    0.001    0.001    0.001    0.001
 qs_ks_did_change                   139  7.7    0.000    0.000    0.000    0.001
 release_fast_vec_access           3646 15.1    0.001    0.001    0.001    0.001
 pw_create                          409 12.9    0.001    0.001    0.001    0.001
 write_mo_dependent_results          11  7.9    0.001    0.001    0.001    0.001
 atom_ppint_setup                     2  9.0    0.001    0.001    0.001    0.001
 calculate_ecore_efield              22  5.9    0.000    0.001    0.000    0.001
 qs_scf_print_scf_summary            11  7.9    0.000    0.001    0.000    0.001
 setup_velocities                     1  3.0    0.000    0.000    0.001    0.001
 initialize_velocities                1  4.0    0.001    0.001    0.001    0.001
 distribute_molecules_1d              1  3.0    0.001    0.001    0.001    0.001
 dump_info_core_hamiltonian          22  6.9    0.001    0.001    0.001    0.001
 topology_coordinate_pack             1  3.0    0.000    0.000    0.001    0.001
 rs_grid_create                      26  9.3    0.000    0.001    0.000    0.001
 calculate_atom_vxc_lda              10 11.0    0.001    0.001    0.001    0.001
 check_generate_mol                   1  6.0    0.001    0.001    0.001    0.001
 set_mo_occupation_1                129  9.4    0.001    0.001    0.001    0.001
 mp_cart_coords                    1792 11.6    0.000    0.001    0.000    0.001
 connectivity_control_check_ele       1  4.0    0.000    0.001    0.000    0.001
 qs_efield_berry_phase              128 10.3    0.000    0.001    0.000    0.001
 scf_c_read_parameters                1  3.0    0.000    0.001    0.000    0.001
 qs_scf_ensure_mos                   11  5.9    0.000    0.000    0.000    0.001
 pw_poisson_rebuild                 128 11.3    0.000    0.001    0.000    0.001
 scf_c_create                         1  3.0    0.000    0.001    0.000    0.001
 topology_connectivity_pack_4         1  4.0    0.000    0.000    0.000    0.000
 topology_generate_onfo               1  4.0    0.000    0.000    0.000    0.000
 mpools_rebuild_fm_pools              1  4.0    0.000    0.000    0.000    0.000
 topology_connectivity_pack_14        1  4.0    0.000    0.000    0.000    0.000
 topology_generate_bond_2             1  5.0    0.000    0.000    0.000    0.000
 topology_connectivity_pack_9         1  4.0    0.000    0.000    0.000    0.000
 section_velocity_val_set             1  7.0    0.000    0.000    0.000    0.000
 topology_coordinate_pack_11          1  4.0    0.000    0.000    0.000    0.000
 cp_fm_scale                         10  9.0    0.000    0.000    0.000    0.000
 topology_coordinate_pack_1           1  4.0    0.000    0.000    0.000    0.000
 create_grid_atom                     2  9.0    0.000    0.000    0.000    0.000
 qs_scf_post_ps_implicit             11  8.9    0.000    0.000    0.000    0.000
 atom2d_build                        11  7.9    0.000    0.000    0.000    0.000
 init_interaction_radii               1  3.0    0.000    0.000    0.000    0.000
 topology_generate_molecule           1  4.0    0.000    0.000    0.000    0.000
 remove_restart_info                  1  2.0    0.000    0.000    0.000    0.000
 topology_connectivity_pack_11        1  4.0    0.000    0.000    0.000    0.000
 qs_scf_post_transport               11  8.9    0.000    0.000    0.000    0.000
 topology_connectivity_pack_10        1  4.0    0.000    0.000    0.000    0.000
 qs_scf_post_charges                 11  6.9    0.000    0.000    0.000    0.000
 topology_connectivity_pack_5         1  4.0    0.000    0.000    0.000    0.000
 topology_connectivity_pack_12        1  4.0    0.000    0.000    0.000    0.000
 transport_current                   11  9.9    0.000    0.000    0.000    0.000
 dbcsr_filter_anytype               172  9.7    0.000    0.000    0.000    0.000
 topology_set_atm_mass                1  4.0    0.000    0.000    0.000    0.000
 topology_molecules_check             1  4.0    0.000    0.000    0.000    0.000
 topology_connectivity_pack_13        1  4.0    0.000    0.000    0.000    0.000
 dbcsr_verify_matrix                 22  9.9    0.000    0.000    0.000    0.000
 mp_max_r                             1  2.0    0.000    0.000    0.000    0.000
 qs_energies_properties              11  5.9    0.000    0.000    0.000    0.000
 temperature_control                 10  3.0    0.000    0.000    0.000    0.000
 write_structure_data                12  4.8    0.000    0.000    0.000    0.000
 mp_sum_r                             1  2.0    0.000    0.000    0.000    0.000
 sg_erf                               5 10.0    0.000    0.000    0.000    0.000
 mp_max_d                             1  1.0    0.000    0.000    0.000    0.000
 -------------------------------------------------------------------------------

 The number of warnings for this run is : 1
 
 -------------------------------------------------------------------------------
  **** **** ******  **  PROGRAM ENDED AT                 2020-09-10 20:00:20.133
 ***** ** ***  *** **   PROGRAM RAN ON                         openhpc-compute-6
 **    ****   ******    PROGRAM RAN BY                                    steveb
 ***** **    ** ** **   PROGRAM PROCESS ID                                 16251
  **** **  *******  **  PROGRAM STOPPED IN /alaska/steveb/hpc-tests/stage/alaska
                                           /ib-gcc9-openmpi4-ucx/cp2k/Cp2k_H2O_2
                                           56_8
